version 3
run General-291-20250729-21:37:03-52084
attr configname General
attr datetime 20250729-21:37:03
attr datetimef 20250729-213703
attr experiment General
attr inifile omnetpp.ini
attr iterationvars ""
attr iterationvarsd ""
attr iterationvarsf ""
attr measurement ""
attr network RGG
attr processid 52084
attr repetition 291
attr replication #291
attr resultdir results
attr runnumber 291
attr seedset 291
config network RGG
config seed-set 291
config num-rngs 1
config sim-time-limit 10s
config repeat 500
config **.node[*].xCor "uniform(0.0, 1.0, 0)"
config **.node[*].yCor "uniform(0.0, 1.0, 0)"
config *.numWalkers 2
config *.numNodes 50
config *.enableDuplication false
config *.rc 0.33

vector 0 RGG.node[29] visitedPerTimestep ETV
vector 1 RGG.node[1] visitedPerTimestep ETV
vector 2 RGG.node[24] visitedPerTimestep ETV
vector 3 RGG.node[48] visitedPerTimestep ETV
vector 4 RGG.node[33] visitedPerTimestep ETV
vector 5 RGG.node[2] visitedPerTimestep ETV
vector 6 RGG.node[44] visitedPerTimestep ETV
vector 7 RGG.node[35] visitedPerTimestep ETV
vector 8 RGG.node[3] visitedPerTimestep ETV
vector 9 RGG.node[13] visitedPerTimestep ETV
vector 10 RGG.node[6] visitedPerTimestep ETV
vector 11 RGG.node[5] visitedPerTimestep ETV
vector 12 RGG.node[26] visitedPerTimestep ETV
vector 13 RGG.node[41] visitedPerTimestep ETV
vector 14 RGG.node[12] visitedPerTimestep ETV
vector 15 RGG.node[23] visitedPerTimestep ETV
vector 16 RGG.node[34] visitedPerTimestep ETV
vector 17 RGG.node[43] visitedPerTimestep ETV
vector 18 RGG.node[47] visitedPerTimestep ETV
vector 19 RGG.node[28] visitedPerTimestep ETV
vector 20 RGG.node[0] visitedPerTimestep ETV
vector 21 RGG.node[49] visitedPerTimestep ETV
vector 22 RGG.node[37] visitedPerTimestep ETV
vector 23 RGG.node[32] visitedPerTimestep ETV
vector 24 RGG.node[7] visitedPerTimestep ETV
vector 25 RGG.node[30] visitedPerTimestep ETV
vector 26 RGG.node[4] visitedPerTimestep ETV
vector 27 RGG.node[11] visitedPerTimestep ETV
vector 28 RGG.node[17] visitedPerTimestep ETV
vector 29 RGG.node[40] visitedPerTimestep ETV
vector 30 RGG.node[21] visitedPerTimestep ETV
vector 31 RGG.node[36] visitedPerTimestep ETV
vector 32 RGG.node[18] visitedPerTimestep ETV
vector 33 RGG.node[20] visitedPerTimestep ETV
vector 34 RGG.node[9] visitedPerTimestep ETV
vector 35 RGG.node[15] visitedPerTimestep ETV
vector 36 RGG.node[45] visitedPerTimestep ETV
vector 37 RGG.node[27] visitedPerTimestep ETV
vector 38 RGG.node[22] visitedPerTimestep ETV
vector 39 RGG.node[19] visitedPerTimestep ETV
vector 40 RGG.node[25] visitedPerTimestep ETV
vector 41 RGG.node[38] visitedPerTimestep ETV
vector 42 RGG.node[16] visitedPerTimestep ETV
vector 43 RGG.node[14] visitedPerTimestep ETV
vector 44 RGG.node[8] visitedPerTimestep ETV
vector 45 RGG.node[39] visitedPerTimestep ETV
vector 46 RGG.node[42] visitedPerTimestep ETV
vector 47 RGG.node[46] visitedPerTimestep ETV
vector 48 RGG.node[10] visitedPerTimestep ETV
0	2	0	2
0	52	0	27
0	98	0	34
0	126	0	36
0	136	0	36
0	156	0	36
0	344	0	48
0	408	0	48
0	468	0	49
0	518	0	49
0	526	0	49
0	612	0	49
0	638	0	49
0	646	0	49
1	4	0	4
1	90	0	34
1	170	0	37
1	256	0	47
1	358	0	48
1	374	0	48
1	400	0	48
1	404	0	48
1	410	0	48
1	436	0	48
1	534	0	49
1	546	0	49
1	550	0	49
1	578	0	49
1	668	0	49
2	6	0	6
2	10	0	8
2	58	0	28
2	84	0	34
2	144	0	36
2	234	0	46
2	248	0	47
2	264	0	48
2	378	0	48
2	414	0	48
2	432	0	48
2	440	0	48
2	508	0	49
2	522	0	49
2	598	0	49
2	640	0	49
3	8	0	7
3	178	0	38
4	12	0	10
4	54	0	27
4	82	0	34
4	116	0	35
4	120	0	35
4	162	0	37
4	204	0	40
4	254	0	47
4	316	0	48
4	398	0	48
4	442	0	48
4	470	0	49
4	488	0	49
4	608	0	49
4	672	0	49
5	14	0	12
5	78	0	34
5	146	0	36
5	160	0	37
5	286	0	48
5	384	0	48
5	434	0	48
5	476	0	49
5	506	0	49
5	558	0	49
5	580	0	49
5	648	0	49
6	16	0	14
6	150	0	36
6	288	0	48
6	560	0	49
6	632	0	49
7	18	0	14
7	80	0	34
7	122	0	35
7	138	0	36
7	312	0	48
7	614	0	49
7	644	0	49
7	654	0	49
8	20	0	16
8	62	0	29
8	218	0	44
8	332	0	48
8	336	0	48
8	356	0	48
8	372	0	48
8	386	0	48
8	544	0	49
8	556	0	49
8	662	0	49
8	666	0	49
8	680	0	49
9	22	0	18
9	26	0	19
9	36	0	24
9	60	0	29
9	100	0	34
9	266	0	48
9	274	0	48
9	338	0	48
9	376	0	48
9	402	0	48
9	424	0	48
9	438	0	48
9	466	0	49
9	484	0	49
9	500	0	49
9	516	0	49
9	542	0	49
9	642	0	49
9	652	0	49
9	658	0	49
10	24	0	19
10	34	0	23
10	182	0	38
10	186	0	39
10	346	0	48
10	422	0	48
10	498	0	49
10	514	0	49
10	540	0	49
11	28	0	20
11	128	0	36
11	200	0	40
11	230	0	46
11	280	0	48
11	320	0	48
11	618	0	49
12	30	0	22
12	130	0	36
12	270	0	48
12	352	0	48
12	366	0	48
12	390	0	48
12	448	0	48
12	626	0	49
13	32	0	23
13	348	0	48
13	496	0	49
14	38	0	24
14	42	0	26
14	102	0	34
14	152	0	36
14	198	0	40
14	278	0	48
14	426	0	48
14	588	0	49
14	630	0	49
14	660	0	49
15	40	0	25
15	44	0	26
15	70	0	34
15	104	0	34
15	196	0	40
15	452	0	49
15	458	0	49
15	686	0	49
16	46	0	27
16	208	0	40
16	364	0	48
16	460	0	49
17	48	0	27
17	66	0	31
17	74	0	34
17	190	0	39
17	354	0	48
17	370	0	48
17	664	0	49
18	50	0	27
18	108	0	34
18	132	0	36
18	154	0	36
18	188	0	39
18	252	0	47
18	318	0	48
18	360	0	48
18	512	0	49
18	656	0	49
19	56	0	28
19	92	0	34
19	114	0	35
19	166	0	37
19	232	0	46
19	276	0	48
19	322	0	48
19	396	0	48
19	446	0	48
19	504	0	49
19	510	0	49
19	554	0	49
19	584	0	49
19	616	0	49
20	64	0	31
20	210	0	41
20	222	0	45
20	226	0	46
20	388	0	48
20	454	0	49
20	462	0	49
20	628	0	49
20	678	0	49
20	684	0	49
21	68	0	33
21	216	0	44
21	456	0	49
21	494	0	49
21	682	0	49
22	72	0	34
22	688	0	49
23	76	0	34
23	202	0	40
23	362	0	48
23	444	0	48
23	590	0	49
23	636	0	49
24	86	0	34
24	524	0	49
24	532	0	49
24	600	0	49
25	88	0	34
25	184	0	39
25	340	0	48
25	416	0	48
26	94	0	34
26	118	0	35
26	176	0	38
26	238	0	47
26	250	0	47
26	302	0	48
26	326	0	48
26	412	0	48
26	474	0	49
26	480	0	49
26	582	0	49
27	96	0	34
27	134	0	36
27	236	0	47
27	284	0	48
27	328	0	48
27	382	0	48
27	430	0	48
27	490	0	49
27	520	0	49
27	538	0	49
27	610	0	49
27	650	0	49
27	674	0	49
28	106	0	34
28	164	0	37
28	194	0	40
28	220	0	45
28	228	0	46
28	272	0	48
28	330	0	48
28	334	0	48
28	368	0	48
28	464	0	49
28	486	0	49
28	676	0	49
29	110	0	34
29	140	0	36
29	174	0	37
29	180	0	38
29	242	0	47
29	342	0	48
29	420	0	48
29	528	0	49
29	574	0	49
29	670	0	49
30	112	0	35
30	142	0	36
30	268	0	48
30	324	0	48
30	392	0	48
30	478	0	49
30	482	0	49
30	502	0	49
30	552	0	49
30	586	0	49
31	124	0	36
31	258	0	47
31	262	0	48
31	300	0	48
31	306	0	48
31	310	0	48
31	472	0	49
32	148	0	36
32	308	0	48
32	606	0	49
33	158	0	36
33	172	0	37
33	240	0	47
33	244	0	47
33	380	0	48
33	406	0	48
33	536	0	49
33	572	0	49
33	576	0	49
33	602	0	49
34	168	0	37
34	206	0	40
34	282	0	48
34	314	0	48
34	394	0	48
34	428	0	48
34	492	0	49
35	192	0	40
35	212	0	42
35	224	0	45
35	620	0	49
36	214	0	44
36	350	0	48
36	624	0	49
37	246	0	47
37	548	0	49
37	570	0	49
37	592	0	49
37	596	0	49
37	604	0	49
38	260	0	48
38	298	0	48
38	594	0	49
39	290	0	48
39	564	0	49
40	292	0	48
40	634	0	49
41	294	0	48
41	566	0	49
42	296	0	48
43	304	0	48
44	418	0	48
44	530	0	49
45	450	0	49
45	622	0	49
46	562	0	49
47	568	0	49
48	690	0	50

