version 3
run General-383-20250808-22:38:14-7018
attr configname General
attr datetime 20250808-22:38:14
attr datetimef 20250808-223814
attr experiment General
attr inifile omnetpp.ini
attr iterationvars ""
attr iterationvarsd ""
attr iterationvarsf ""
attr measurement ""
attr network RGG
attr processid 7018
attr repetition 383
attr replication #383
attr resultdir results
attr runnumber 383
attr seedset 383
config network RGG
config seed-set 383
config num-rngs 1
config sim-time-limit 10s
config repeat 500
config **.node[*].xCor "uniform(0.0, 1.0, 0)"
config **.node[*].yCor "uniform(0.0, 1.0, 0)"
config *.numWalkers 1
config *.numNodes 50
config *.enableDuplication true
config *.rc 0.4

vector 0 RGG.node[23] visitedPerTimestep ETV
vector 1 RGG.node[15] visitedPerTimestep ETV
vector 2 RGG.node[16] visitedPerTimestep ETV
vector 3 RGG.node[10] visitedPerTimestep ETV
vector 4 RGG.node[36] visitedPerTimestep ETV
vector 5 RGG.node[19] visitedPerTimestep ETV
vector 6 RGG.node[46] visitedPerTimestep ETV
vector 7 RGG.node[20] visitedPerTimestep ETV
vector 8 RGG.node[42] visitedPerTimestep ETV
vector 9 RGG.node[7] visitedPerTimestep ETV
vector 10 RGG.node[17] visitedPerTimestep ETV
vector 11 RGG.node[30] visitedPerTimestep ETV
vector 12 RGG.node[49] visitedPerTimestep ETV
vector 13 RGG.node[32] visitedPerTimestep ETV
vector 14 RGG.node[29] visitedPerTimestep ETV
vector 15 RGG.node[22] visitedPerTimestep ETV
vector 16 RGG.node[6] visitedPerTimestep ETV
vector 17 RGG.node[38] visitedPerTimestep ETV
vector 18 RGG.node[35] visitedPerTimestep ETV
vector 19 RGG.node[9] visitedPerTimestep ETV
vector 20 RGG.node[41] visitedPerTimestep ETV
vector 21 RGG.node[3] visitedPerTimestep ETV
vector 22 RGG.node[47] visitedPerTimestep ETV
vector 23 RGG.node[25] visitedPerTimestep ETV
vector 24 RGG.node[1] visitedPerTimestep ETV
vector 25 RGG.node[44] visitedPerTimestep ETV
vector 26 RGG.node[45] visitedPerTimestep ETV
vector 27 RGG.node[2] visitedPerTimestep ETV
vector 28 RGG.node[34] visitedPerTimestep ETV
vector 29 RGG.node[39] visitedPerTimestep ETV
vector 30 RGG.node[11] visitedPerTimestep ETV
vector 31 RGG.node[33] visitedPerTimestep ETV
vector 32 RGG.node[26] visitedPerTimestep ETV
vector 33 RGG.node[24] visitedPerTimestep ETV
vector 34 RGG.node[0] visitedPerTimestep ETV
vector 35 RGG.node[14] visitedPerTimestep ETV
vector 36 RGG.node[31] visitedPerTimestep ETV
vector 37 RGG.node[21] visitedPerTimestep ETV
vector 38 RGG.node[8] visitedPerTimestep ETV
vector 39 RGG.node[18] visitedPerTimestep ETV
vector 40 RGG.node[40] visitedPerTimestep ETV
vector 41 RGG.node[27] visitedPerTimestep ETV
vector 42 RGG.node[13] visitedPerTimestep ETV
0	1	0	1
0	88	0	39
1	2	0	2
1	17	0	12
1	52	0	27
1	114	0	41
1	162	0	45
1	318	0	49
2	3	0	3
2	26	0	19
2	302	0	49
3	4	0	4
3	16	0	12
4	5	0	5
4	41	0	26
4	47	0	27
4	98	0	41
4	222	0	46
5	6	0	6
5	34	0	23
5	78	0	34
5	106	0	41
5	112	0	41
6	7	0	7
6	9	0	8
6	14	0	12
6	31	0	23
6	170	0	45
7	8	0	8
7	32	0	23
7	290	0	48
8	10	0	9
8	174	0	45
9	11	0	10
9	56	0	28
10	12	0	11
10	39	0	26
10	100	0	41
10	154	0	45
10	234	0	46
11	13	0	12
11	15	0	12
11	24	0	18
11	40	0	26
11	42	0	26
11	64	0	28
11	246	0	46
12	18	0	13
12	310	0	49
12	326	0	49
13	19	0	14
13	286	0	48
14	20	0	15
14	314	0	49
15	21	0	16
15	122	0	41
15	132	0	42
15	148	0	45
15	202	0	46
15	210	0	46
16	22	0	17
16	36	0	24
16	68	0	31
16	118	0	41
16	130	0	41
16	214	0	46
16	254	0	46
17	23	0	18
17	46	0	27
17	116	0	41
17	186	0	46
17	218	0	46
17	258	0	46
18	25	0	19
18	33	0	23
18	96	0	40
18	306	0	49
19	27	0	20
19	43	0	26
19	48	0	27
19	54	0	27
19	62	0	28
19	74	0	33
20	28	0	21
20	49	0	27
20	58	0	28
20	238	0	46
21	29	0	22
21	82	0	36
21	104	0	41
21	266	0	48
22	30	0	23
22	182	0	46
22	274	0	48
22	294	0	49
23	35	0	24
23	136	0	44
23	146	0	44
23	250	0	46
24	37	0	25
24	140	0	44
24	144	0	44
24	190	0	46
25	38	0	26
25	45	0	27
25	50	0	27
25	60	0	28
25	72	0	32
25	242	0	46
26	44	0	27
26	158	0	45
26	166	0	45
26	262	0	47
27	66	0	30
27	128	0	41
27	142	0	44
28	70	0	31
29	76	0	34
29	226	0	46
30	80	0	36
30	92	0	39
30	102	0	41
31	84	0	38
31	90	0	39
31	298	0	49
32	86	0	39
33	94	0	40
34	108	0	41
34	282	0	48
34	322	0	49
34	330	0	49
35	110	0	41
35	230	0	46
35	270	0	48
36	120	0	41
36	124	0	41
36	150	0	45
37	126	0	41
38	134	0	44
38	194	0	46
38	342	0	50
39	138	0	44
39	198	0	46
39	206	0	46
40	178	0	46
40	278	0	48
41	334	0	49
42	338	0	49

