file 3638 1753814226                                            
version 3
run General-409-20250729-21:37:06-52282
attr configname General
attr datetime 20250729-21:37:06
attr datetimef 20250729-213706
attr experiment General
attr inifile omnetpp.ini
attr iterationvars ""
attr iterationvarsd ""
attr iterationvarsf ""
attr measurement ""
attr network RGG
attr processid 52282
attr repetition 409
attr replication #409
attr resultdir results
attr runnumber 409
attr seedset 409
config network RGG
config seed-set 409
config num-rngs 1
config sim-time-limit 10s
config repeat 500
config **.node[*].xCor "uniform(0.0, 1.0, 0)"
config **.node[*].yCor "uniform(0.0, 1.0, 0)"
config *.numWalkers 2
config *.numNodes 50
config *.enableDuplication false
config *.rc 0.33

vector 0 RGG.node[26] visitedPerTimestep ETV
vector 1 RGG.node[7] visitedPerTimestep ETV
vector 2 RGG.node[11] visitedPerTimestep ETV
vector 3 RGG.node[37] visitedPerTimestep ETV
vector 4 RGG.node[20] visitedPerTimestep ETV
vector 5 RGG.node[32] visitedPerTimestep ETV
vector 6 RGG.node[43] visitedPerTimestep ETV
vector 7 RGG.node[13] visitedPerTimestep ETV
vector 8 RGG.node[6] visitedPerTimestep ETV
vector 9 RGG.node[5] visitedPerTimestep ETV
vector 10 RGG.node[49] visitedPerTimestep ETV
vector 11 RGG.node[46] visitedPerTimestep ETV
vector 12 RGG.node[0] visitedPerTimestep ETV
vector 13 RGG.node[22] visitedPerTimestep ETV
vector 14 RGG.node[35] visitedPerTimestep ETV
vector 15 RGG.node[45] visitedPerTimestep ETV
vector 16 RGG.node[38] visitedPerTimestep ETV
vector 17 RGG.node[47] visitedPerTimestep ETV
vector 18 RGG.node[19] visitedPerTimestep ETV
vector 19 RGG.node[34] visitedPerTimestep ETV
vector 20 RGG.node[36] visitedPerTimestep ETV
vector 21 RGG.node[14] visitedPerTimestep ETV
vector 22 RGG.node[4] visitedPerTimestep ETV
vector 23 RGG.node[42] visitedPerTimestep ETV
vector 24 RGG.node[25] visitedPerTimestep ETV
vector 25 RGG.node[1] visitedPerTimestep ETV
vector 26 RGG.node[44] visitedPerTimestep ETV
vector 27 RGG.node[18] visitedPerTimestep ETV
vector 28 RGG.node[17] visitedPerTimestep ETV
vector 29 RGG.node[8] visitedPerTimestep ETV
vector 30 RGG.node[30] visitedPerTimestep ETV
vector 31 RGG.node[2] visitedPerTimestep ETV
vector 32 RGG.node[21] visitedPerTimestep ETV
vector 33 RGG.node[31] visitedPerTimestep ETV
vector 34 RGG.node[29] visitedPerTimestep ETV
0	2292 19 2 122 0 0 2 2 44 46 1940
1	2311 19 4 120 0 0 2 4 44 48 1952
2	2330 29 6 126 0 0 3 5 44 86 3330
3	2359 19 8 136 0 0 2 7 45 52 2074
4	2378 20 10 156 0 0 2 9 47 56 2290
5	2398 40 12 198 0 0 4 9 49 130 5076
6	2438 64 14 184 0 0 6 10 49 228 9844
7	2502 42 16 204 0 0 4 11 49 139 5755
8	2544 52 18 182 0 0 5 12 49 170 6684
9	2596 63 20 234 0 0 6 13 49 219 9083
10	2659 91 22 238 0 0 8 14 49 272 10572
11	2750 80 24 232 0 0 7 16 49 243 9641
12	2830 70 26 218 0 0 6 18 49 241 10577
13	2900 34 28 190 0 0 3 20 49 102 3890
14	2934 46 34 188 0 0 4 23 49 152 6258
15	2980 58 38 236 0 0 5 25 49 204 8852
16	3038 34 40 220 0 0 3 27 49 106 4030
17	3072 23 54 170 0 0 2 30 48 78 3204
18	3095 46 58 196 0 0 4 32 49 161 6657
19	3141 57 76 142 0 0 5 34 46 195 7749
20	3198 35 78 214 0 0 3 34 49 132 5958
21	3233 47 82 202 0 0 4 35 49 176 7860
22	3280 71 86 210 0 0 6 36 49 279 13109
23	3351 35 96 118 0 0 3 38 44 124 5144
24	3386 11 98 98 0 0 1 39 39 39 1521
25	3397 12 100 100 0 0 1 40 40 40 1600
26	3409 24 102 106 0 0 2 41 42 83 3445
27	3433 24 104 112 0 0 2 42 43 85 3613
28	3457 24 110 116 0 0 2 43 44 87 3785
29	3481 12 114 114 0 0 1 44 44 44 1936
30	3493 12 124 124 0 0 1 44 44 44 1936
31	3505 36 134 158 0 0 3 45 47 139 6443
32	3541 48 140 212 0 0 4 46 49 191 9127
33	3589 36 166 230 0 0 3 48 49 146 7106
34	3625 12 240 240 0 0 1 50 50 50 2500

