version 3
run General-398-20250729-21:37:06-52261
attr configname General
attr datetime 20250729-21:37:06
attr datetimef 20250729-213706
attr experiment General
attr inifile omnetpp.ini
attr iterationvars ""
attr iterationvarsd ""
attr iterationvarsf ""
attr measurement ""
attr network RGG
attr processid 52261
attr repetition 398
attr replication #398
attr resultdir results
attr runnumber 398
attr seedset 398
config network RGG
config seed-set 398
config num-rngs 1
config sim-time-limit 10s
config repeat 500
config **.node[*].xCor "uniform(0.0, 1.0, 0)"
config **.node[*].yCor "uniform(0.0, 1.0, 0)"
config *.numWalkers 2
config *.numNodes 50
config *.enableDuplication false
config *.rc 0.33

vector 0 RGG.node[0] visitedPerTimestep ETV
vector 1 RGG.node[34] visitedPerTimestep ETV
vector 2 RGG.node[15] visitedPerTimestep ETV
vector 3 RGG.node[48] visitedPerTimestep ETV
vector 4 RGG.node[22] visitedPerTimestep ETV
vector 5 RGG.node[37] visitedPerTimestep ETV
vector 6 RGG.node[25] visitedPerTimestep ETV
vector 7 RGG.node[21] visitedPerTimestep ETV
vector 8 RGG.node[1] visitedPerTimestep ETV
vector 9 RGG.node[17] visitedPerTimestep ETV
vector 10 RGG.node[32] visitedPerTimestep ETV
vector 11 RGG.node[20] visitedPerTimestep ETV
vector 12 RGG.node[45] visitedPerTimestep ETV
vector 13 RGG.node[14] visitedPerTimestep ETV
vector 14 RGG.node[6] visitedPerTimestep ETV
vector 15 RGG.node[23] visitedPerTimestep ETV
vector 16 RGG.node[16] visitedPerTimestep ETV
vector 17 RGG.node[3] visitedPerTimestep ETV
vector 18 RGG.node[43] visitedPerTimestep ETV
vector 19 RGG.node[31] visitedPerTimestep ETV
vector 20 RGG.node[30] visitedPerTimestep ETV
vector 21 RGG.node[40] visitedPerTimestep ETV
vector 22 RGG.node[9] visitedPerTimestep ETV
vector 23 RGG.node[41] visitedPerTimestep ETV
vector 24 RGG.node[36] visitedPerTimestep ETV
vector 25 RGG.node[26] visitedPerTimestep ETV
vector 26 RGG.node[24] visitedPerTimestep ETV
vector 27 RGG.node[18] visitedPerTimestep ETV
vector 28 RGG.node[2] visitedPerTimestep ETV
vector 29 RGG.node[35] visitedPerTimestep ETV
vector 30 RGG.node[12] visitedPerTimestep ETV
vector 31 RGG.node[44] visitedPerTimestep ETV
vector 32 RGG.node[8] visitedPerTimestep ETV
vector 33 RGG.node[49] visitedPerTimestep ETV
vector 34 RGG.node[11] visitedPerTimestep ETV
vector 35 RGG.node[10] visitedPerTimestep ETV
vector 36 RGG.node[29] visitedPerTimestep ETV
vector 37 RGG.node[39] visitedPerTimestep ETV
vector 38 RGG.node[47] visitedPerTimestep ETV
vector 39 RGG.node[42] visitedPerTimestep ETV
vector 40 RGG.node[27] visitedPerTimestep ETV
vector 41 RGG.node[4] visitedPerTimestep ETV
vector 42 RGG.node[5] visitedPerTimestep ETV
vector 43 RGG.node[13] visitedPerTimestep ETV
vector 44 RGG.node[28] visitedPerTimestep ETV
vector 45 RGG.node[38] visitedPerTimestep ETV
0	2	0	2
0	140	0	48
0	216	0	48
0	256	0	48
1	4	0	4
1	110	0	43
1	266	0	48
2	6	0	6
2	118	0	43
2	154	0	48
2	170	0	48
2	190	0	48
2	218	0	48
2	258	0	48
2	272	0	48
3	8	0	8
3	80	0	38
3	182	0	48
4	10	0	10
4	114	0	43
4	208	0	48
5	12	0	12
6	14	0	14
7	16	0	15
8	18	0	16
9	20	0	17
9	34	0	27
9	100	0	42
9	282	0	48
9	292	0	48
9	324	0	49
10	22	0	19
10	40	0	29
10	98	0	42
10	290	0	48
10	322	0	49
11	24	0	21
11	30	0	25
11	294	0	48
12	26	0	23
13	28	0	25
13	46	0	32
14	32	0	27
14	36	0	27
14	42	0	30
14	280	0	48
15	38	0	28
16	44	0	32
16	48	0	32
16	90	0	40
16	94	0	42
16	278	0	48
16	298	0	48
16	312	0	49
16	318	0	49
16	326	0	49
17	50	0	32
17	88	0	40
17	276	0	48
18	52	0	32
18	78	0	37
18	168	0	48
18	192	0	48
18	204	0	48
18	212	0	48
18	262	0	48
19	54	0	32
19	116	0	43
19	156	0	48
19	180	0	48
19	186	0	48
19	202	0	48
19	206	0	48
19	210	0	48
20	56	0	32
20	68	0	34
20	76	0	36
20	150	0	48
20	166	0	48
21	58	0	32
21	66	0	33
21	160	0	48
21	222	0	48
22	60	0	32
22	176	0	48
22	250	0	48
23	62	0	32
23	122	0	43
23	242	0	48
23	252	0	48
24	64	0	33
24	124	0	43
24	130	0	45
25	70	0	34
25	74	0	35
25	148	0	48
26	72	0	35
26	146	0	48
26	158	0	48
26	200	0	48
26	220	0	48
26	270	0	48
27	82	0	39
27	274	0	48
27	286	0	48
28	84	0	40
28	230	0	48
28	236	0	48
29	86	0	40
30	92	0	41
30	284	0	48
30	288	0	48
30	320	0	49
31	96	0	42
31	104	0	43
32	102	0	43
32	106	0	43
32	196	0	48
32	296	0	48
32	306	0	49
33	108	0	43
33	304	0	49
33	310	0	49
33	314	0	49
33	328	0	50
34	112	0	43
34	184	0	48
34	188	0	48
34	198	0	48
34	268	0	48
34	308	0	49
35	120	0	43
35	142	0	48
36	126	0	44
36	226	0	48
36	234	0	48
36	240	0	48
36	246	0	48
37	128	0	45
37	228	0	48
37	232	0	48
37	238	0	48
38	132	0	46
38	162	0	48
38	224	0	48
39	134	0	47
39	174	0	48
39	248	0	48
39	254	0	48
40	136	0	48
40	144	0	48
40	214	0	48
41	138	0	48
41	152	0	48
41	164	0	48
41	172	0	48
41	178	0	48
42	194	0	48
43	244	0	48
44	260	0	48
44	264	0	48
44	302	0	49
45	300	0	49
45	316	0	49

