version 3
run General-215-20250808-22:38:12-6735
attr configname General
attr datetime 20250808-22:38:12
attr datetimef 20250808-223812
attr experiment General
attr inifile omnetpp.ini
attr iterationvars ""
attr iterationvarsd ""
attr iterationvarsf ""
attr measurement ""
attr network RGG
attr processid 6735
attr repetition 215
attr replication #215
attr resultdir results
attr runnumber 215
attr seedset 215
config network RGG
config seed-set 215
config num-rngs 1
config sim-time-limit 10s
config repeat 500
config **.node[*].xCor "uniform(0.0, 1.0, 0)"
config **.node[*].yCor "uniform(0.0, 1.0, 0)"
config *.numWalkers 1
config *.numNodes 50
config *.enableDuplication true
config *.rc 0.4

vector 0 RGG.node[33] visitedPerTimestep ETV
vector 1 RGG.node[1] visitedPerTimestep ETV
vector 2 RGG.node[10] visitedPerTimestep ETV
vector 3 RGG.node[38] visitedPerTimestep ETV
vector 4 RGG.node[40] visitedPerTimestep ETV
vector 5 RGG.node[34] visitedPerTimestep ETV
vector 6 RGG.node[23] visitedPerTimestep ETV
vector 7 RGG.node[14] visitedPerTimestep ETV
vector 8 RGG.node[39] visitedPerTimestep ETV
vector 9 RGG.node[2] visitedPerTimestep ETV
vector 10 RGG.node[31] visitedPerTimestep ETV
vector 11 RGG.node[46] visitedPerTimestep ETV
vector 12 RGG.node[13] visitedPerTimestep ETV
vector 13 RGG.node[12] visitedPerTimestep ETV
vector 14 RGG.node[22] visitedPerTimestep ETV
vector 15 RGG.node[30] visitedPerTimestep ETV
vector 16 RGG.node[4] visitedPerTimestep ETV
vector 17 RGG.node[18] visitedPerTimestep ETV
vector 18 RGG.node[26] visitedPerTimestep ETV
vector 19 RGG.node[16] visitedPerTimestep ETV
vector 20 RGG.node[21] visitedPerTimestep ETV
vector 21 RGG.node[28] visitedPerTimestep ETV
vector 22 RGG.node[42] visitedPerTimestep ETV
vector 23 RGG.node[41] visitedPerTimestep ETV
vector 24 RGG.node[5] visitedPerTimestep ETV
vector 25 RGG.node[36] visitedPerTimestep ETV
vector 26 RGG.node[27] visitedPerTimestep ETV
vector 27 RGG.node[43] visitedPerTimestep ETV
vector 28 RGG.node[49] visitedPerTimestep ETV
vector 29 RGG.node[20] visitedPerTimestep ETV
vector 30 RGG.node[7] visitedPerTimestep ETV
vector 31 RGG.node[45] visitedPerTimestep ETV
vector 32 RGG.node[17] visitedPerTimestep ETV
vector 33 RGG.node[8] visitedPerTimestep ETV
vector 34 RGG.node[37] visitedPerTimestep ETV
vector 35 RGG.node[32] visitedPerTimestep ETV
vector 36 RGG.node[29] visitedPerTimestep ETV
vector 37 RGG.node[44] visitedPerTimestep ETV
vector 38 RGG.node[15] visitedPerTimestep ETV
vector 39 RGG.node[48] visitedPerTimestep ETV
vector 40 RGG.node[19] visitedPerTimestep ETV
vector 41 RGG.node[47] visitedPerTimestep ETV
vector 42 RGG.node[9] visitedPerTimestep ETV
vector 43 RGG.node[3] visitedPerTimestep ETV
vector 44 RGG.node[11] visitedPerTimestep ETV
0	1	0	1
0	82	0	38
0	96	0	41
1	2	0	2
1	98	0	42
1	106	0	43
1	178	0	46
1	190	0	46
2	3	0	3
2	7	0	6
2	80	0	38
2	92	0	41
3	4	0	4
3	226	0	47
3	238	0	48
4	5	0	5
4	8	0	6
4	90	0	41
5	6	0	6
5	194	0	46
6	9	0	7
6	37	0	22
6	142	0	45
7	10	0	8
7	36	0	22
8	11	0	9
8	17	0	13
8	20	0	14
8	24	0	16
8	29	0	18
8	35	0	22
8	38	0	22
8	62	0	35
8	144	0	45
9	12	0	10
9	14	0	11
10	13	0	11
10	34	0	22
10	58	0	34
10	206	0	47
11	15	0	12
11	19	0	14
11	146	0	45
12	16	0	13
13	18	0	14
14	21	0	15
14	23	0	16
14	148	0	45
15	22	0	16
15	27	0	18
15	64	0	35
15	112	0	43
16	25	0	17
16	110	0	43
16	140	0	45
17	26	0	18
17	28	0	18
17	60	0	35
17	66	0	35
17	150	0	45
18	30	0	19
18	40	0	23
18	94	0	41
18	100	0	42
18	262	0	48
19	31	0	20
19	162	0	45
19	218	0	47
20	32	0	21
20	46	0	28
20	174	0	46
20	298	0	48
21	33	0	22
21	70	0	36
21	114	0	43
21	266	0	48
22	39	0	23
22	54	0	32
23	41	0	24
23	136	0	45
23	154	0	45
24	42	0	25
24	270	0	48
25	43	0	26
25	49	0	30
25	116	0	43
25	122	0	43
25	170	0	45
25	282	0	48
25	306	0	48
25	326	0	49
26	44	0	27
26	104	0	43
26	158	0	45
26	318	0	48
26	330	0	50
27	45	0	28
27	128	0	44
27	166	0	45
27	250	0	48
27	274	0	48
27	302	0	48
28	47	0	29
29	48	0	30
29	50	0	30
29	74	0	36
29	278	0	48
29	290	0	48
30	52	0	32
30	186	0	46
30	222	0	47
31	56	0	34
31	108	0	43
31	124	0	43
31	214	0	47
32	68	0	36
33	72	0	36
33	76	0	37
33	120	0	43
33	132	0	45
33	182	0	46
33	310	0	48
34	78	0	38
34	198	0	46
34	230	0	47
35	84	0	39
36	86	0	40
37	88	0	41
38	102	0	43
38	202	0	46
38	210	0	47
38	242	0	48
39	118	0	43
39	254	0	48
39	286	0	48
39	314	0	48
39	322	0	48
40	126	0	44
40	138	0	45
41	130	0	45
41	134	0	45
42	234	0	48
43	246	0	48
43	258	0	48
44	294	0	48

