file 4482 1753814226                                            
version 3
run General-399-20250729-21:37:06-52266
attr configname General
attr datetime 20250729-21:37:06
attr datetimef 20250729-213706
attr experiment General
attr inifile omnetpp.ini
attr iterationvars ""
attr iterationvarsd ""
attr iterationvarsf ""
attr measurement ""
attr network RGG
attr processid 52266
attr repetition 399
attr replication #399
attr resultdir results
attr runnumber 399
attr seedset 399
config network RGG
config seed-set 399
config num-rngs 1
config sim-time-limit 10s
config repeat 500
config **.node[*].xCor "uniform(0.0, 1.0, 0)"
config **.node[*].yCor "uniform(0.0, 1.0, 0)"
config *.numWalkers 2
config *.numNodes 50
config *.enableDuplication false
config *.rc 0.33

vector 0 RGG.node[5] visitedPerTimestep ETV
vector 1 RGG.node[18] visitedPerTimestep ETV
vector 2 RGG.node[24] visitedPerTimestep ETV
vector 3 RGG.node[12] visitedPerTimestep ETV
vector 4 RGG.node[46] visitedPerTimestep ETV
vector 5 RGG.node[19] visitedPerTimestep ETV
vector 6 RGG.node[45] visitedPerTimestep ETV
vector 7 RGG.node[32] visitedPerTimestep ETV
vector 8 RGG.node[7] visitedPerTimestep ETV
vector 9 RGG.node[40] visitedPerTimestep ETV
vector 10 RGG.node[38] visitedPerTimestep ETV
vector 11 RGG.node[23] visitedPerTimestep ETV
vector 12 RGG.node[6] visitedPerTimestep ETV
vector 13 RGG.node[21] visitedPerTimestep ETV
vector 14 RGG.node[30] visitedPerTimestep ETV
vector 15 RGG.node[15] visitedPerTimestep ETV
vector 16 RGG.node[14] visitedPerTimestep ETV
vector 17 RGG.node[37] visitedPerTimestep ETV
vector 18 RGG.node[49] visitedPerTimestep ETV
vector 19 RGG.node[27] visitedPerTimestep ETV
vector 20 RGG.node[17] visitedPerTimestep ETV
vector 21 RGG.node[25] visitedPerTimestep ETV
vector 22 RGG.node[0] visitedPerTimestep ETV
vector 23 RGG.node[13] visitedPerTimestep ETV
vector 24 RGG.node[28] visitedPerTimestep ETV
vector 25 RGG.node[1] visitedPerTimestep ETV
vector 26 RGG.node[43] visitedPerTimestep ETV
vector 27 RGG.node[16] visitedPerTimestep ETV
vector 28 RGG.node[48] visitedPerTimestep ETV
vector 29 RGG.node[33] visitedPerTimestep ETV
vector 30 RGG.node[8] visitedPerTimestep ETV
vector 31 RGG.node[3] visitedPerTimestep ETV
vector 32 RGG.node[39] visitedPerTimestep ETV
vector 33 RGG.node[11] visitedPerTimestep ETV
vector 34 RGG.node[2] visitedPerTimestep ETV
vector 35 RGG.node[41] visitedPerTimestep ETV
vector 36 RGG.node[36] visitedPerTimestep ETV
vector 37 RGG.node[4] visitedPerTimestep ETV
vector 38 RGG.node[31] visitedPerTimestep ETV
vector 39 RGG.node[47] visitedPerTimestep ETV
vector 40 RGG.node[20] visitedPerTimestep ETV
vector 41 RGG.node[9] visitedPerTimestep ETV
vector 42 RGG.node[22] visitedPerTimestep ETV
vector 43 RGG.node[10] visitedPerTimestep ETV
vector 44 RGG.node[44] visitedPerTimestep ETV
vector 45 RGG.node[42] visitedPerTimestep ETV
vector 46 RGG.node[34] visitedPerTimestep ETV
vector 47 RGG.node[35] visitedPerTimestep ETV
0	2888 19 2 208 0 0 2 2 48 50 2308
1	2907 29 4 216 0 0 3 4 48 74 2804
2	2936 49 6 218 0 0 5 5 48 116 3670
3	2985 29 8 210 0 0 3 6 48 77 2869
4	3014 19 10 40 0 0 2 8 23 31 593
5	3033 61 12 212 0 0 6 10 48 132 3826
6	3094 20 14 46 0 0 2 11 24 35 697
7	3114 20 16 30 0 0 2 13 20 33 569
8	3134 10 20 20 0 0 1 16 16 16 256
9	3144 31 28 206 0 0 3 20 48 93 3329
10	3175 11 32 32 0 0 1 21 21 21 441
11	3186 22 48 58 0 0 2 24 25 49 1201
12	3208 33 50 64 0 0 3 24 27 76 1930
13	3241 35 52 204 0 0 3 24 48 119 5089
14	3276 45 60 184 0 0 4 25 47 130 4518
15	3321 11 62 62 0 0 1 27 27 27 729
16	3332 46 66 194 0 0 4 28 47 150 5986
17	3378 23 68 182 0 0 2 28 47 75 2993
18	3401 11 70 70 0 0 1 28 28 28 784
19	3412 23 76 198 0 0 2 28 47 75 2993
20	3435 34 78 188 0 0 3 28 47 105 3893
21	3469 23 80 160 0 0 2 29 43 72 2690
22	3492 35 82 240 0 0 3 30 49 122 5150
23	3527 35 84 178 0 0 3 30 47 120 4958
24	3562 47 88 202 0 0 4 30 48 172 7622
25	3609 11 90 90 0 0 1 30 30 30 900
26	3620 22 94 98 0 0 2 31 32 63 1985
27	3642 35 96 244 0 0 3 32 49 125 5361
28	3677 36 100 266 0 0 3 33 49 121 5011
29	3713 36 102 136 0 0 3 33 39 109 3979
30	3749 60 104 270 0 0 5 34 49 200 8120
31	3809 72 106 274 0 0 6 35 49 247 10365
32	3881 72 108 276 0 0 6 36 49 240 9704
33	3953 24 112 254 0 0 2 37 49 86 3770
34	3977 72 116 278 0 0 6 38 49 253 10809
35	4049 48 120 280 0 0 4 39 50 177 7943
36	4097 60 150 272 0 0 5 40 49 236 11204
37	4157 72 152 264 0 0 6 41 49 282 13310
38	4229 60 154 242 0 0 5 42 49 232 10816
39	4289 24 156 164 0 0 2 43 43 86 3698
40	4313 24 170 222 0 0 2 45 49 94 4426
41	4337 48 174 248 0 0 4 46 49 193 9319
42	4385 36 176 236 0 0 3 47 49 145 7011
43	4421 12 190 190 0 0 1 47 47 47 2209
44	4433 12 200 200 0 0 1 48 48 48 2304
45	4445 12 214 214 0 0 1 48 48 48 2304
46	4457 12 220 220 0 0 1 49 49 49 2401
47	4469 12 226 226 0 0 1 49 49 49 2401

