version 3
run General-179-20250808-22:38:11-6675
attr configname General
attr datetime 20250808-22:38:11
attr datetimef 20250808-223811
attr experiment General
attr inifile omnetpp.ini
attr iterationvars ""
attr iterationvarsd ""
attr iterationvarsf ""
attr measurement ""
attr network RGG
attr processid 6675
attr repetition 179
attr replication #179
attr resultdir results
attr runnumber 179
attr seedset 179
config network RGG
config seed-set 179
config num-rngs 1
config sim-time-limit 10s
config repeat 500
config **.node[*].xCor "uniform(0.0, 1.0, 0)"
config **.node[*].yCor "uniform(0.0, 1.0, 0)"
config *.numWalkers 1
config *.numNodes 50
config *.enableDuplication true
config *.rc 0.4

vector 0 RGG.node[2] visitedPerTimestep ETV
vector 1 RGG.node[17] visitedPerTimestep ETV
vector 2 RGG.node[32] visitedPerTimestep ETV
vector 3 RGG.node[23] visitedPerTimestep ETV
vector 4 RGG.node[3] visitedPerTimestep ETV
vector 5 RGG.node[11] visitedPerTimestep ETV
vector 6 RGG.node[18] visitedPerTimestep ETV
vector 7 RGG.node[9] visitedPerTimestep ETV
vector 8 RGG.node[48] visitedPerTimestep ETV
vector 9 RGG.node[36] visitedPerTimestep ETV
vector 10 RGG.node[6] visitedPerTimestep ETV
vector 11 RGG.node[15] visitedPerTimestep ETV
vector 12 RGG.node[8] visitedPerTimestep ETV
vector 13 RGG.node[44] visitedPerTimestep ETV
vector 14 RGG.node[19] visitedPerTimestep ETV
vector 15 RGG.node[10] visitedPerTimestep ETV
vector 16 RGG.node[14] visitedPerTimestep ETV
vector 17 RGG.node[40] visitedPerTimestep ETV
vector 18 RGG.node[16] visitedPerTimestep ETV
vector 19 RGG.node[34] visitedPerTimestep ETV
vector 20 RGG.node[37] visitedPerTimestep ETV
vector 21 RGG.node[12] visitedPerTimestep ETV
vector 22 RGG.node[1] visitedPerTimestep ETV
vector 23 RGG.node[45] visitedPerTimestep ETV
vector 24 RGG.node[46] visitedPerTimestep ETV
vector 25 RGG.node[7] visitedPerTimestep ETV
vector 26 RGG.node[30] visitedPerTimestep ETV
vector 27 RGG.node[22] visitedPerTimestep ETV
vector 28 RGG.node[29] visitedPerTimestep ETV
vector 29 RGG.node[21] visitedPerTimestep ETV
vector 30 RGG.node[28] visitedPerTimestep ETV
vector 31 RGG.node[13] visitedPerTimestep ETV
vector 32 RGG.node[49] visitedPerTimestep ETV
vector 33 RGG.node[31] visitedPerTimestep ETV
vector 34 RGG.node[35] visitedPerTimestep ETV
vector 35 RGG.node[41] visitedPerTimestep ETV
vector 36 RGG.node[4] visitedPerTimestep ETV
vector 37 RGG.node[42] visitedPerTimestep ETV
vector 38 RGG.node[25] visitedPerTimestep ETV
vector 39 RGG.node[0] visitedPerTimestep ETV
vector 40 RGG.node[27] visitedPerTimestep ETV
vector 41 RGG.node[47] visitedPerTimestep ETV
vector 42 RGG.node[39] visitedPerTimestep ETV
vector 43 RGG.node[43] visitedPerTimestep ETV
vector 44 RGG.node[20] visitedPerTimestep ETV
vector 45 RGG.node[38] visitedPerTimestep ETV
0	1	0	1
0	24	0	18
0	278	0	48
1	2	0	2
2	3	0	3
2	140	0	44
2	202	0	46
3	4	0	4
3	44	0	31
3	138	0	44
3	210	0	46
3	218	0	46
4	5	0	5
4	49	0	32
4	136	0	44
4	142	0	44
4	214	0	46
5	6	0	6
5	39	0	29
5	64	0	36
5	92	0	41
5	148	0	44
5	190	0	46
6	7	0	7
6	21	0	17
6	60	0	34
6	158	0	44
7	8	0	8
7	19	0	16
7	23	0	18
7	33	0	26
7	45	0	31
7	62	0	35
7	72	0	36
7	84	0	38
7	90	0	40
7	106	0	43
8	9	0	9
8	14	0	13
8	16	0	14
8	112	0	43
8	130	0	44
9	10	0	10
9	47	0	31
9	104	0	43
9	194	0	46
9	230	0	46
10	11	0	11
11	12	0	12
11	56	0	34
11	162	0	44
12	13	0	13
12	41	0	30
12	46	0	31
12	82	0	38
12	100	0	43
13	15	0	14
14	17	0	15
14	34	0	26
14	38	0	29
14	124	0	44
15	18	0	16
15	96	0	41
16	20	0	17
16	76	0	36
16	132	0	44
16	144	0	44
17	22	0	18
17	42	0	30
17	58	0	34
17	66	0	36
17	150	0	44
18	25	0	19
18	126	0	44
19	26	0	20
19	290	0	48
19	306	0	49
19	322	0	49
20	27	0	21
20	116	0	43
20	318	0	49
21	28	0	22
21	302	0	49
22	29	0	23
22	52	0	33
22	174	0	45
23	30	0	24
23	54	0	34
23	108	0	43
24	31	0	25
24	50	0	32
24	128	0	44
24	282	0	48
25	32	0	26
25	70	0	36
25	74	0	36
25	198	0	46
25	270	0	48
26	35	0	27
26	258	0	48
27	36	0	28
27	206	0	46
28	37	0	29
29	40	0	30
29	78	0	36
29	182	0	46
29	266	0	48
30	43	0	31
30	68	0	36
30	94	0	41
30	146	0	44
30	154	0	44
30	186	0	46
30	222	0	46
31	48	0	32
31	88	0	39
31	102	0	43
32	80	0	37
32	86	0	38
33	98	0	43
33	134	0	44
33	178	0	45
33	262	0	48
33	274	0	48
34	110	0	43
34	122	0	44
34	246	0	48
35	114	0	43
35	120	0	44
35	250	0	48
35	286	0	48
35	326	0	49
36	118	0	44
36	254	0	48
37	166	0	44
38	170	0	45
38	314	0	49
39	226	0	46
40	234	0	47
41	238	0	48
42	242	0	48
43	294	0	49
43	310	0	49
44	298	0	49
45	330	0	50

