version 3
run General-307-20250808-22:38:13-6890
attr configname General
attr datetime 20250808-22:38:13
attr datetimef 20250808-223813
attr experiment General
attr inifile omnetpp.ini
attr iterationvars ""
attr iterationvarsd ""
attr iterationvarsf ""
attr measurement ""
attr network RGG
attr processid 6890
attr repetition 307
attr replication #307
attr resultdir results
attr runnumber 307
attr seedset 307
config network RGG
config seed-set 307
config num-rngs 1
config sim-time-limit 10s
config repeat 500
config **.node[*].xCor "uniform(0.0, 1.0, 0)"
config **.node[*].yCor "uniform(0.0, 1.0, 0)"
config *.numWalkers 1
config *.numNodes 50
config *.enableDuplication true
config *.rc 0.4

vector 0 RGG.node[37] visitedPerTimestep ETV
vector 1 RGG.node[8] visitedPerTimestep ETV
vector 2 RGG.node[15] visitedPerTimestep ETV
vector 3 RGG.node[12] visitedPerTimestep ETV
vector 4 RGG.node[21] visitedPerTimestep ETV
vector 5 RGG.node[13] visitedPerTimestep ETV
vector 6 RGG.node[24] visitedPerTimestep ETV
vector 7 RGG.node[48] visitedPerTimestep ETV
vector 8 RGG.node[43] visitedPerTimestep ETV
vector 9 RGG.node[4] visitedPerTimestep ETV
vector 10 RGG.node[42] visitedPerTimestep ETV
vector 11 RGG.node[39] visitedPerTimestep ETV
vector 12 RGG.node[35] visitedPerTimestep ETV
vector 13 RGG.node[23] visitedPerTimestep ETV
vector 14 RGG.node[36] visitedPerTimestep ETV
vector 15 RGG.node[44] visitedPerTimestep ETV
vector 16 RGG.node[10] visitedPerTimestep ETV
vector 17 RGG.node[14] visitedPerTimestep ETV
vector 18 RGG.node[17] visitedPerTimestep ETV
vector 19 RGG.node[45] visitedPerTimestep ETV
vector 20 RGG.node[16] visitedPerTimestep ETV
vector 21 RGG.node[34] visitedPerTimestep ETV
vector 22 RGG.node[3] visitedPerTimestep ETV
vector 23 RGG.node[20] visitedPerTimestep ETV
vector 24 RGG.node[30] visitedPerTimestep ETV
vector 25 RGG.node[7] visitedPerTimestep ETV
vector 26 RGG.node[25] visitedPerTimestep ETV
vector 27 RGG.node[27] visitedPerTimestep ETV
vector 28 RGG.node[0] visitedPerTimestep ETV
vector 29 RGG.node[29] visitedPerTimestep ETV
vector 30 RGG.node[47] visitedPerTimestep ETV
vector 31 RGG.node[38] visitedPerTimestep ETV
vector 32 RGG.node[1] visitedPerTimestep ETV
vector 33 RGG.node[33] visitedPerTimestep ETV
vector 34 RGG.node[11] visitedPerTimestep ETV
vector 35 RGG.node[41] visitedPerTimestep ETV
vector 36 RGG.node[2] visitedPerTimestep ETV
vector 37 RGG.node[46] visitedPerTimestep ETV
vector 38 RGG.node[40] visitedPerTimestep ETV
vector 39 RGG.node[9] visitedPerTimestep ETV
vector 40 RGG.node[18] visitedPerTimestep ETV
0	1	0	1
0	3	0	2
0	10	0	7
0	110	0	42
1	2	0	2
1	34	0	22
2	4	0	3
2	12	0	7
3	5	0	4
3	7	0	5
3	31	0	22
3	37	0	23
3	42	0	25
3	44	0	26
3	130	0	43
4	6	0	5
4	11	0	7
4	40	0	25
5	8	0	6
5	47	0	26
5	64	0	30
5	132	0	43
5	148	0	44
6	9	0	7
6	60	0	29
6	118	0	43
6	136	0	43
7	13	0	8
8	14	0	9
9	15	0	10
9	32	0	22
9	41	0	25
9	112	0	43
9	116	0	43
10	16	0	11
10	33	0	22
11	17	0	12
11	35	0	22
11	76	0	31
11	104	0	39
12	18	0	13
12	108	0	41
12	114	0	43
13	19	0	14
13	30	0	22
13	45	0	26
13	106	0	40
13	120	0	43
13	128	0	43
14	20	0	15
14	52	0	28
14	74	0	31
14	126	0	43
15	21	0	16
15	49	0	27
15	58	0	29
15	84	0	33
15	140	0	43
16	22	0	17
16	72	0	31
16	138	0	43
16	142	0	43
17	23	0	18
17	66	0	31
18	24	0	19
18	54	0	28
18	124	0	43
19	25	0	20
19	28	0	22
19	146	0	44
20	26	0	21
20	46	0	26
20	154	0	44
21	27	0	22
21	29	0	22
21	62	0	30
21	70	0	31
22	36	0	23
23	38	0	24
23	162	0	45
24	39	0	25
24	96	0	36
25	43	0	26
25	68	0	31
26	48	0	27
26	80	0	32
27	50	0	28
27	94	0	36
27	102	0	38
27	158	0	44
28	56	0	29
28	144	0	43
29	78	0	32
29	86	0	34
29	198	0	50
30	82	0	33
30	178	0	47
31	88	0	35
31	100	0	37
32	90	0	35
32	170	0	47
33	92	0	36
33	190	0	49
34	98	0	37
35	122	0	43
35	134	0	43
35	150	0	44
36	166	0	46
37	174	0	47
38	182	0	48
39	186	0	49
40	194	0	49

