file 4894 1754681891                                            
version 3
run General-164-20250808-22:38:11-6650
attr configname General
attr datetime 20250808-22:38:11
attr datetimef 20250808-223811
attr experiment General
attr inifile omnetpp.ini
attr iterationvars ""
attr iterationvarsd ""
attr iterationvarsf ""
attr measurement ""
attr network RGG
attr processid 6650
attr repetition 164
attr replication #164
attr resultdir results
attr runnumber 164
attr seedset 164
config network RGG
config seed-set 164
config num-rngs 1
config sim-time-limit 10s
config repeat 500
config **.node[*].xCor "uniform(0.0, 1.0, 0)"
config **.node[*].yCor "uniform(0.0, 1.0, 0)"
config *.numWalkers 1
config *.numNodes 50
config *.enableDuplication true
config *.rc 0.4

vector 0 RGG.node[44] visitedPerTimestep ETV
vector 1 RGG.node[39] visitedPerTimestep ETV
vector 2 RGG.node[20] visitedPerTimestep ETV
vector 3 RGG.node[30] visitedPerTimestep ETV
vector 4 RGG.node[0] visitedPerTimestep ETV
vector 5 RGG.node[23] visitedPerTimestep ETV
vector 6 RGG.node[22] visitedPerTimestep ETV
vector 7 RGG.node[16] visitedPerTimestep ETV
vector 8 RGG.node[48] visitedPerTimestep ETV
vector 9 RGG.node[10] visitedPerTimestep ETV
vector 10 RGG.node[46] visitedPerTimestep ETV
vector 11 RGG.node[43] visitedPerTimestep ETV
vector 12 RGG.node[11] visitedPerTimestep ETV
vector 13 RGG.node[40] visitedPerTimestep ETV
vector 14 RGG.node[3] visitedPerTimestep ETV
vector 15 RGG.node[4] visitedPerTimestep ETV
vector 16 RGG.node[8] visitedPerTimestep ETV
vector 17 RGG.node[35] visitedPerTimestep ETV
vector 18 RGG.node[6] visitedPerTimestep ETV
vector 19 RGG.node[12] visitedPerTimestep ETV
vector 20 RGG.node[42] visitedPerTimestep ETV
vector 21 RGG.node[26] visitedPerTimestep ETV
vector 22 RGG.node[2] visitedPerTimestep ETV
vector 23 RGG.node[15] visitedPerTimestep ETV
vector 24 RGG.node[28] visitedPerTimestep ETV
vector 25 RGG.node[45] visitedPerTimestep ETV
vector 26 RGG.node[17] visitedPerTimestep ETV
vector 27 RGG.node[14] visitedPerTimestep ETV
vector 28 RGG.node[21] visitedPerTimestep ETV
vector 29 RGG.node[34] visitedPerTimestep ETV
vector 30 RGG.node[38] visitedPerTimestep ETV
vector 31 RGG.node[24] visitedPerTimestep ETV
vector 32 RGG.node[7] visitedPerTimestep ETV
vector 33 RGG.node[47] visitedPerTimestep ETV
vector 34 RGG.node[31] visitedPerTimestep ETV
vector 35 RGG.node[5] visitedPerTimestep ETV
vector 36 RGG.node[9] visitedPerTimestep ETV
vector 37 RGG.node[29] visitedPerTimestep ETV
vector 38 RGG.node[33] visitedPerTimestep ETV
vector 39 RGG.node[18] visitedPerTimestep ETV
vector 40 RGG.node[27] visitedPerTimestep ETV
vector 41 RGG.node[41] visitedPerTimestep ETV
vector 42 RGG.node[13] visitedPerTimestep ETV
vector 43 RGG.node[36] visitedPerTimestep ETV
vector 44 RGG.node[1] visitedPerTimestep ETV
vector 45 RGG.node[25] visitedPerTimestep ETV
vector 46 RGG.node[32] visitedPerTimestep ETV
0	2838 27 1 102 0 0 3 1 42 45 1769
1	2865 37 2 104 0 0 4 2 42 81 2873
2	2902 98 4 422 0 0 10 3 48 242 8424
3	3000 27 5 26 0 0 3 4 15 26 290
4	3027 29 8 114 0 0 3 5 42 62 2014
5	3056 59 9 230 0 0 6 6 48 181 6833
6	3115 41 10 242 0 0 4 7 48 136 5746
7	3156 40 12 108 0 0 4 8 42 79 2249
8	3196 29 13 25 0 0 3 9 15 37 475
9	3225 52 14 414 0 0 5 10 48 147 5609
10	3277 46 15 382 0 0 4 11 48 130 5210
11	3323 35 16 346 0 0 3 12 48 102 4212
12	3358 93 17 486 0 0 8 13 49 287 12127
13	3451 47 21 558 0 0 4 14 49 159 7205
14	3498 11 24 24 0 0 1 15 15 15 225
15	3509 69 32 478 0 0 6 16 49 221 9017
16	3578 71 33 262 0 0 6 17 48 244 10618
17	3649 47 34 614 0 0 4 18 50 164 7432
18	3696 57 35 374 0 0 5 19 48 155 5571
19	3753 82 36 582 0 0 7 20 49 284 12508
20	3835 35 37 358 0 0 3 21 48 116 4954
21	3870 59 39 574 0 0 5 22 49 213 9607
22	3929 47 41 290 0 0 4 23 48 165 7253
23	3976 35 43 550 0 0 3 24 49 117 4913
24	4011 131 46 606 0 0 11 25 49 494 22658
25	4142 83 47 534 0 0 7 26 49 303 13495
26	4225 45 52 222 0 0 4 28 48 153 6053
27	4270 22 54 92 0 0 2 30 41 71 2581
28	4292 34 56 100 0 0 3 32 42 112 4232
29	4326 22 66 80 0 0 2 34 38 72 2600
30	4348 23 68 106 0 0 2 35 42 77 2989
31	4371 22 70 78 0 0 2 37 38 75 2813
32	4393 34 72 238 0 0 3 38 48 128 5512
33	4427 23 84 270 0 0 2 38 48 86 3748
34	4450 23 90 226 0 0 2 41 48 89 3985
35	4473 24 110 266 0 0 2 42 48 90 4068
36	4497 24 116 306 0 0 2 43 48 91 4153
37	4521 24 130 318 0 0 2 44 48 92 4240
38	4545 60 138 430 0 0 5 44 48 229 10505
39	4605 72 140 598 0 0 6 44 49 283 13371
40	4677 24 144 406 0 0 2 44 48 92 4240
41	4701 72 178 494 0 0 6 47 49 287 13731
42	4773 24 194 286 0 0 2 47 48 95 4513
43	4797 24 214 322 0 0 2 47 48 95 4513
44	4821 12 218 218 0 0 1 48 48 48 2304
45	4833 48 438 590 0 0 4 48 49 195 9507
46	4881 12 470 470 0 0 1 49 49 49 2401

