version 3
run General-447-20250808-22:38:15-7128
attr configname General
attr datetime 20250808-22:38:15
attr datetimef 20250808-223815
attr experiment General
attr inifile omnetpp.ini
attr iterationvars ""
attr iterationvarsd ""
attr iterationvarsf ""
attr measurement ""
attr network RGG
attr processid 7128
attr repetition 447
attr replication #447
attr resultdir results
attr runnumber 447
attr seedset 447
config network RGG
config seed-set 447
config num-rngs 1
config sim-time-limit 10s
config repeat 500
config **.node[*].xCor "uniform(0.0, 1.0, 0)"
config **.node[*].yCor "uniform(0.0, 1.0, 0)"
config *.numWalkers 1
config *.numNodes 50
config *.enableDuplication true
config *.rc 0.4

vector 0 RGG.node[31] visitedPerTimestep ETV
vector 1 RGG.node[34] visitedPerTimestep ETV
vector 2 RGG.node[24] visitedPerTimestep ETV
vector 3 RGG.node[40] visitedPerTimestep ETV
vector 4 RGG.node[27] visitedPerTimestep ETV
vector 5 RGG.node[47] visitedPerTimestep ETV
vector 6 RGG.node[18] visitedPerTimestep ETV
vector 7 RGG.node[16] visitedPerTimestep ETV
vector 8 RGG.node[15] visitedPerTimestep ETV
vector 9 RGG.node[23] visitedPerTimestep ETV
vector 10 RGG.node[10] visitedPerTimestep ETV
vector 11 RGG.node[26] visitedPerTimestep ETV
vector 12 RGG.node[28] visitedPerTimestep ETV
vector 13 RGG.node[49] visitedPerTimestep ETV
vector 14 RGG.node[12] visitedPerTimestep ETV
vector 15 RGG.node[6] visitedPerTimestep ETV
vector 16 RGG.node[5] visitedPerTimestep ETV
vector 17 RGG.node[41] visitedPerTimestep ETV
vector 18 RGG.node[21] visitedPerTimestep ETV
vector 19 RGG.node[2] visitedPerTimestep ETV
vector 20 RGG.node[38] visitedPerTimestep ETV
vector 21 RGG.node[33] visitedPerTimestep ETV
vector 22 RGG.node[37] visitedPerTimestep ETV
vector 23 RGG.node[14] visitedPerTimestep ETV
vector 24 RGG.node[1] visitedPerTimestep ETV
vector 25 RGG.node[0] visitedPerTimestep ETV
vector 26 RGG.node[36] visitedPerTimestep ETV
vector 27 RGG.node[7] visitedPerTimestep ETV
vector 28 RGG.node[25] visitedPerTimestep ETV
vector 29 RGG.node[32] visitedPerTimestep ETV
vector 30 RGG.node[11] visitedPerTimestep ETV
vector 31 RGG.node[8] visitedPerTimestep ETV
vector 32 RGG.node[35] visitedPerTimestep ETV
vector 33 RGG.node[30] visitedPerTimestep ETV
vector 34 RGG.node[29] visitedPerTimestep ETV
vector 35 RGG.node[9] visitedPerTimestep ETV
vector 36 RGG.node[43] visitedPerTimestep ETV
vector 37 RGG.node[13] visitedPerTimestep ETV
vector 38 RGG.node[48] visitedPerTimestep ETV
vector 39 RGG.node[42] visitedPerTimestep ETV
vector 40 RGG.node[17] visitedPerTimestep ETV
vector 41 RGG.node[46] visitedPerTimestep ETV
vector 42 RGG.node[3] visitedPerTimestep ETV
vector 43 RGG.node[45] visitedPerTimestep ETV
vector 44 RGG.node[20] visitedPerTimestep ETV
0	1	0	1
0	20	0	15
0	66	0	36
0	90	0	38
0	242	0	47
1	2	0	2
1	8	0	7
1	26	0	19
1	226	0	46
2	3	0	3
2	78	0	36
2	130	0	40
2	146	0	40
2	318	0	47
2	366	0	49
3	4	0	4
3	43	0	30
3	70	0	36
3	294	0	47
3	322	0	47
4	5	0	5
4	18	0	14
4	47	0	31
4	49	0	32
4	132	0	40
5	6	0	6
5	10	0	7
5	118	0	39
5	148	0	40
6	7	0	7
6	9	0	7
6	52	0	32
6	238	0	47
6	326	0	47
7	11	0	8
7	28	0	19
7	106	0	39
7	270	0	47
8	12	0	9
8	126	0	40
8	342	0	48
8	350	0	48
9	13	0	10
9	114	0	39
9	128	0	40
9	222	0	46
9	338	0	48
10	14	0	11
10	27	0	19
10	56	0	33
10	100	0	39
11	15	0	12
11	46	0	31
12	16	0	13
12	33	0	23
12	84	0	37
12	150	0	40
12	234	0	46
13	17	0	14
13	34	0	23
13	134	0	40
13	274	0	47
14	19	0	15
14	23	0	17
14	72	0	36
14	194	0	45
15	21	0	16
15	44	0	30
15	110	0	39
15	116	0	39
15	246	0	47
15	278	0	47
15	314	0	47
15	358	0	48
16	22	0	17
16	92	0	38
16	138	0	40
16	306	0	47
17	24	0	18
17	94	0	38
17	112	0	39
17	142	0	40
17	254	0	47
17	282	0	47
17	302	0	47
17	374	0	49
18	25	0	19
18	120	0	39
18	330	0	47
18	398	0	50
19	29	0	20
19	86	0	37
19	108	0	39
20	30	0	21
20	80	0	36
20	104	0	39
21	31	0	22
21	54	0	33
21	62	0	35
21	102	0	39
21	262	0	47
21	334	0	48
22	32	0	23
22	230	0	46
22	266	0	47
23	35	0	24
23	42	0	30
24	36	0	25
24	74	0	36
24	140	0	40
24	190	0	45
24	202	0	45
25	37	0	26
25	286	0	47
25	390	0	49
26	38	0	27
27	39	0	28
27	68	0	36
27	198	0	45
28	40	0	29
28	76	0	36
28	144	0	40
28	298	0	47
29	41	0	30
29	50	0	32
29	88	0	37
29	250	0	47
30	45	0	31
30	98	0	39
30	218	0	46
30	346	0	48
31	48	0	32
31	64	0	35
32	58	0	34
32	162	0	41
32	214	0	46
33	60	0	35
33	122	0	39
33	154	0	40
34	82	0	37
35	96	0	39
36	124	0	40
37	136	0	40
37	290	0	47
37	310	0	47
37	382	0	49
38	158	0	41
39	166	0	42
40	170	0	43
41	174	0	44
41	182	0	45
42	178	0	45
42	186	0	45
42	206	0	45
43	210	0	46
44	258	0	47

