file 4463 1754681890                                            
version 3
run General-23-20250808-22:38:10-6412
attr configname General
attr datetime 20250808-22:38:10
attr datetimef 20250808-223810
attr experiment General
attr inifile omnetpp.ini
attr iterationvars ""
attr iterationvarsd ""
attr iterationvarsf ""
attr measurement ""
attr network RGG
attr processid 6412
attr repetition 23
attr replication #23
attr resultdir results
attr runnumber 23
attr seedset 23
config network RGG
config seed-set 23
config num-rngs 1
config sim-time-limit 10s
config repeat 500
config **.node[*].xCor "uniform(0.0, 1.0, 0)"
config **.node[*].yCor "uniform(0.0, 1.0, 0)"
config *.numWalkers 1
config *.numNodes 50
config *.enableDuplication true
config *.rc 0.4

vector 0 RGG.node[9] visitedPerTimestep ETV
vector 1 RGG.node[27] visitedPerTimestep ETV
vector 2 RGG.node[3] visitedPerTimestep ETV
vector 3 RGG.node[21] visitedPerTimestep ETV
vector 4 RGG.node[42] visitedPerTimestep ETV
vector 5 RGG.node[14] visitedPerTimestep ETV
vector 6 RGG.node[16] visitedPerTimestep ETV
vector 7 RGG.node[2] visitedPerTimestep ETV
vector 8 RGG.node[33] visitedPerTimestep ETV
vector 9 RGG.node[0] visitedPerTimestep ETV
vector 10 RGG.node[47] visitedPerTimestep ETV
vector 11 RGG.node[5] visitedPerTimestep ETV
vector 12 RGG.node[29] visitedPerTimestep ETV
vector 13 RGG.node[26] visitedPerTimestep ETV
vector 14 RGG.node[22] visitedPerTimestep ETV
vector 15 RGG.node[17] visitedPerTimestep ETV
vector 16 RGG.node[38] visitedPerTimestep ETV
vector 17 RGG.node[40] visitedPerTimestep ETV
vector 18 RGG.node[39] visitedPerTimestep ETV
vector 19 RGG.node[28] visitedPerTimestep ETV
vector 20 RGG.node[41] visitedPerTimestep ETV
vector 21 RGG.node[8] visitedPerTimestep ETV
vector 22 RGG.node[15] visitedPerTimestep ETV
vector 23 RGG.node[36] visitedPerTimestep ETV
vector 24 RGG.node[31] visitedPerTimestep ETV
vector 25 RGG.node[19] visitedPerTimestep ETV
vector 26 RGG.node[7] visitedPerTimestep ETV
vector 27 RGG.node[44] visitedPerTimestep ETV
vector 28 RGG.node[25] visitedPerTimestep ETV
vector 29 RGG.node[37] visitedPerTimestep ETV
vector 30 RGG.node[46] visitedPerTimestep ETV
vector 31 RGG.node[1] visitedPerTimestep ETV
vector 32 RGG.node[49] visitedPerTimestep ETV
vector 33 RGG.node[12] visitedPerTimestep ETV
vector 34 RGG.node[20] visitedPerTimestep ETV
vector 35 RGG.node[30] visitedPerTimestep ETV
vector 36 RGG.node[24] visitedPerTimestep ETV
vector 37 RGG.node[43] visitedPerTimestep ETV
vector 38 RGG.node[6] visitedPerTimestep ETV
vector 39 RGG.node[34] visitedPerTimestep ETV
vector 40 RGG.node[4] visitedPerTimestep ETV
vector 41 RGG.node[13] visitedPerTimestep ETV
vector 42 RGG.node[23] visitedPerTimestep ETV
vector 43 RGG.node[10] visitedPerTimestep ETV
vector 44 RGG.node[32] visitedPerTimestep ETV
vector 45 RGG.node[35] visitedPerTimestep ETV
vector 46 RGG.node[48] visitedPerTimestep ETV
vector 47 RGG.node[11] visitedPerTimestep ETV
0	2878 51 1 210 0 0 5 1 48 175 7597
1	2929 8 2 2 0 0 1 2 2 2 4
2	2937 19 3 104 0 0 2 3 42 45 1773
3	2956 56 4 42 0 0 6 4 25 97 2047
4	3012 40 5 310 0 0 4 5 49 135 5851
5	3052 29 6 118 0 0 3 6 42 73 2425
6	3081 39 8 202 0 0 4 7 48 97 3253
7	3120 49 9 114 0 0 5 8 42 116 3294
8	3169 31 10 314 0 0 3 9 49 106 4786
9	3200 64 11 206 0 0 6 10 48 205 8337
10	3264 35 12 302 0 0 3 11 49 108 4826
11	3299 58 13 306 0 0 5 12 49 192 8406
12	3357 34 14 242 0 0 3 13 48 90 3314
13	3391 22 16 39 0 0 2 14 25 39 821
14	3413 35 17 150 0 0 3 15 45 105 4275
15	3448 11 18 18 0 0 1 16 16 16 256
16	3459 35 19 158 0 0 3 17 46 108 4430
17	3494 23 21 138 0 0 2 18 43 61 2173
18	3517 70 23 186 0 0 6 19 48 222 8978
19	3587 35 25 318 0 0 3 20 49 117 5105
20	3622 34 26 112 0 0 3 21 42 87 2781
21	3656 23 27 190 0 0 2 22 48 70 2788
22	3679 56 28 198 0 0 5 23 48 144 4610
23	3735 35 30 178 0 0 3 24 48 119 5089
24	3770 23 38 182 0 0 2 25 48 73 2929
25	3793 58 44 134 0 0 5 26 42 194 7732
26	3851 45 45 250 0 0 4 27 48 157 6397
27	3896 70 46 274 0 0 6 28 48 256 11224
28	3966 34 47 298 0 0 3 29 49 120 5006
29	4000 94 49 294 0 0 8 30 49 349 15505
30	4094 22 50 76 0 0 2 31 39 70 2482
31	4116 11 54 54 0 0 1 34 34 34 1156
32	4127 33 58 72 0 0 3 35 39 113 4267
33	4160 22 60 74 0 0 2 36 39 75 2817
34	4182 11 62 62 0 0 1 37 37 37 1369
35	4193 11 64 64 0 0 1 38 38 38 1444
36	4204 22 66 70 0 0 2 39 39 78 3042
37	4226 23 78 278 0 0 2 40 48 88 3904
38	4249 47 82 218 0 0 4 40 48 172 7432
39	4296 35 84 234 0 0 3 41 48 131 5749
40	4331 11 86 86 0 0 1 42 42 42 1764
41	4342 24 140 148 0 0 2 44 45 89 3961
42	4366 12 142 142 0 0 1 45 45 45 2025
43	4378 12 154 154 0 0 1 46 46 46 2116
44	4390 36 226 270 0 0 3 48 48 144 6912
45	4426 12 238 238 0 0 1 48 48 48 2304
46	4438 12 262 262 0 0 1 48 48 48 2304
47	4450 12 322 322 0 0 1 50 50 50 2500

