file 4508 1754681894                                            
version 3
run General-402-20250808-22:38:14-7053
attr configname General
attr datetime 20250808-22:38:14
attr datetimef 20250808-223814
attr experiment General
attr inifile omnetpp.ini
attr iterationvars ""
attr iterationvarsd ""
attr iterationvarsf ""
attr measurement ""
attr network RGG
attr processid 7053
attr repetition 402
attr replication #402
attr resultdir results
attr runnumber 402
attr seedset 402
config network RGG
config seed-set 402
config num-rngs 1
config sim-time-limit 10s
config repeat 500
config **.node[*].xCor "uniform(0.0, 1.0, 0)"
config **.node[*].yCor "uniform(0.0, 1.0, 0)"
config *.numWalkers 1
config *.numNodes 50
config *.enableDuplication true
config *.rc 0.4

vector 0 RGG.node[15] visitedPerTimestep ETV
vector 1 RGG.node[42] visitedPerTimestep ETV
vector 2 RGG.node[25] visitedPerTimestep ETV
vector 3 RGG.node[16] visitedPerTimestep ETV
vector 4 RGG.node[21] visitedPerTimestep ETV
vector 5 RGG.node[26] visitedPerTimestep ETV
vector 6 RGG.node[36] visitedPerTimestep ETV
vector 7 RGG.node[0] visitedPerTimestep ETV
vector 8 RGG.node[44] visitedPerTimestep ETV
vector 9 RGG.node[10] visitedPerTimestep ETV
vector 10 RGG.node[20] visitedPerTimestep ETV
vector 11 RGG.node[12] visitedPerTimestep ETV
vector 12 RGG.node[35] visitedPerTimestep ETV
vector 13 RGG.node[40] visitedPerTimestep ETV
vector 14 RGG.node[2] visitedPerTimestep ETV
vector 15 RGG.node[5] visitedPerTimestep ETV
vector 16 RGG.node[22] visitedPerTimestep ETV
vector 17 RGG.node[38] visitedPerTimestep ETV
vector 18 RGG.node[14] visitedPerTimestep ETV
vector 19 RGG.node[8] visitedPerTimestep ETV
vector 20 RGG.node[13] visitedPerTimestep ETV
vector 21 RGG.node[6] visitedPerTimestep ETV
vector 22 RGG.node[37] visitedPerTimestep ETV
vector 23 RGG.node[48] visitedPerTimestep ETV
vector 24 RGG.node[3] visitedPerTimestep ETV
vector 25 RGG.node[18] visitedPerTimestep ETV
vector 26 RGG.node[7] visitedPerTimestep ETV
vector 27 RGG.node[11] visitedPerTimestep ETV
vector 28 RGG.node[9] visitedPerTimestep ETV
vector 29 RGG.node[19] visitedPerTimestep ETV
vector 30 RGG.node[27] visitedPerTimestep ETV
vector 31 RGG.node[24] visitedPerTimestep ETV
vector 32 RGG.node[33] visitedPerTimestep ETV
vector 33 RGG.node[45] visitedPerTimestep ETV
vector 34 RGG.node[31] visitedPerTimestep ETV
vector 35 RGG.node[1] visitedPerTimestep ETV
vector 36 RGG.node[47] visitedPerTimestep ETV
vector 37 RGG.node[39] visitedPerTimestep ETV
vector 38 RGG.node[49] visitedPerTimestep ETV
vector 39 RGG.node[34] visitedPerTimestep ETV
vector 40 RGG.node[17] visitedPerTimestep ETV
vector 41 RGG.node[43] visitedPerTimestep ETV
vector 42 RGG.node[30] visitedPerTimestep ETV
vector 43 RGG.node[29] visitedPerTimestep ETV
0	2701 59 1 282 0 0 6 1 49 158 5396
1	2760 62 2 414 0 0 6 2 49 222 9806
2	2822 50 3 254 0 0 5 3 48 158 6370
3	2872 71 4 278 0 0 7 4 49 213 8073
4	2943 93 5 358 0 0 9 5 49 300 12088
5	3036 61 6 406 0 0 6 6 49 201 8291
6	3097 30 7 398 0 0 3 7 49 105 4851
7	3127 19 8 186 0 0 2 8 46 54 2180
8	3146 8 9 9 0 0 1 9 9 9 81
9	3154 10 10 10 0 0 1 10 10 10 100
10	3164 58 11 246 0 0 5 11 48 186 7846
11	3222 106 12 250 0 0 9 12 48 349 15329
12	3328 34 13 238 0 0 3 13 48 97 3769
13	3362 22 15 96 0 0 2 14 38 52 1640
14	3384 70 16 202 0 0 6 15 48 232 9740
15	3454 35 17 318 0 0 3 16 49 114 5058
16	3489 46 18 334 0 0 4 17 49 145 5955
17	3535 58 19 298 0 0 5 18 49 192 8214
18	3593 45 22 262 0 0 4 19 48 120 4074
19	3638 81 24 382 0 0 7 20 49 282 12036
20	3719 23 27 106 0 0 2 21 44 65 2377
21	3742 45 28 112 0 0 4 22 44 126 4228
22	3787 56 29 110 0 0 5 23 44 154 5002
23	3843 22 30 66 0 0 2 24 32 56 1600
24	3865 22 31 45 0 0 2 25 28 53 1409
25	3887 58 33 274 0 0 5 26 49 193 7993
26	3945 23 36 286 0 0 2 27 49 76 3130
27	3968 23 41 128 0 0 2 28 44 72 2720
28	3991 22 48 56 0 0 2 29 31 60 1802
29	4013 58 50 114 0 0 5 30 44 194 7710
30	4071 22 52 68 0 0 2 31 32 63 1985
31	4093 23 74 122 0 0 2 35 44 79 3161
32	4116 83 82 326 0 0 7 36 49 317 14477
33	4199 35 86 322 0 0 3 37 49 135 6171
34	4234 59 90 346 0 0 5 37 49 232 10876
35	4293 23 94 138 0 0 2 38 44 82 3380
36	4316 11 98 98 0 0 1 40 40 40 1600
37	4327 36 100 430 0 0 3 42 49 137 6281
38	4363 60 102 438 0 0 5 43 49 234 10988
39	4423 24 166 178 0 0 2 45 45 90 4050
40	4447 12 226 226 0 0 1 48 48 48 2304
41	4459 12 270 270 0 0 1 49 49 49 2401
42	4471 24 294 302 0 0 2 49 49 98 4802
43	4495 12 446 446 0 0 1 50 50 50 2500

