version 3
run General-90-20250808-22:38:11-6530
attr configname General
attr datetime 20250808-22:38:11
attr datetimef 20250808-223811
attr experiment General
attr inifile omnetpp.ini
attr iterationvars ""
attr iterationvarsd ""
attr iterationvarsf ""
attr measurement ""
attr network RGG
attr processid 6530
attr repetition 90
attr replication #90
attr resultdir results
attr runnumber 90
attr seedset 90
config network RGG
config seed-set 90
config num-rngs 1
config sim-time-limit 10s
config repeat 500
config **.node[*].xCor "uniform(0.0, 1.0, 0)"
config **.node[*].yCor "uniform(0.0, 1.0, 0)"
config *.numWalkers 1
config *.numNodes 50
config *.enableDuplication true
config *.rc 0.4

vector 0 RGG.node[47] visitedPerTimestep ETV
vector 1 RGG.node[17] visitedPerTimestep ETV
vector 2 RGG.node[35] visitedPerTimestep ETV
vector 3 RGG.node[33] visitedPerTimestep ETV
vector 4 RGG.node[41] visitedPerTimestep ETV
vector 5 RGG.node[11] visitedPerTimestep ETV
vector 6 RGG.node[15] visitedPerTimestep ETV
vector 7 RGG.node[3] visitedPerTimestep ETV
vector 8 RGG.node[48] visitedPerTimestep ETV
vector 9 RGG.node[7] visitedPerTimestep ETV
vector 10 RGG.node[27] visitedPerTimestep ETV
vector 11 RGG.node[31] visitedPerTimestep ETV
vector 12 RGG.node[2] visitedPerTimestep ETV
vector 13 RGG.node[20] visitedPerTimestep ETV
vector 14 RGG.node[39] visitedPerTimestep ETV
vector 15 RGG.node[49] visitedPerTimestep ETV
vector 16 RGG.node[24] visitedPerTimestep ETV
vector 17 RGG.node[26] visitedPerTimestep ETV
vector 18 RGG.node[40] visitedPerTimestep ETV
vector 19 RGG.node[18] visitedPerTimestep ETV
vector 20 RGG.node[8] visitedPerTimestep ETV
vector 21 RGG.node[38] visitedPerTimestep ETV
vector 22 RGG.node[12] visitedPerTimestep ETV
vector 23 RGG.node[6] visitedPerTimestep ETV
vector 24 RGG.node[45] visitedPerTimestep ETV
vector 25 RGG.node[22] visitedPerTimestep ETV
vector 26 RGG.node[30] visitedPerTimestep ETV
vector 27 RGG.node[42] visitedPerTimestep ETV
vector 28 RGG.node[21] visitedPerTimestep ETV
vector 29 RGG.node[46] visitedPerTimestep ETV
vector 30 RGG.node[16] visitedPerTimestep ETV
vector 31 RGG.node[13] visitedPerTimestep ETV
vector 32 RGG.node[10] visitedPerTimestep ETV
vector 33 RGG.node[9] visitedPerTimestep ETV
vector 34 RGG.node[5] visitedPerTimestep ETV
vector 35 RGG.node[34] visitedPerTimestep ETV
vector 36 RGG.node[32] visitedPerTimestep ETV
vector 37 RGG.node[37] visitedPerTimestep ETV
vector 38 RGG.node[28] visitedPerTimestep ETV
vector 39 RGG.node[44] visitedPerTimestep ETV
vector 40 RGG.node[29] visitedPerTimestep ETV
vector 41 RGG.node[4] visitedPerTimestep ETV
vector 42 RGG.node[19] visitedPerTimestep ETV
vector 43 RGG.node[36] visitedPerTimestep ETV
vector 44 RGG.node[23] visitedPerTimestep ETV
vector 45 RGG.node[43] visitedPerTimestep ETV
0	1	0	1
0	10	0	9
0	21	0	15
0	32	0	20
0	68	0	29
1	2	0	2
1	31	0	20
1	48	0	27
1	130	0	36
1	136	0	36
1	218	0	46
1	366	0	49
2	3	0	3
2	35	0	22
2	37	0	23
2	41	0	23
2	52	0	28
2	230	0	47
2	238	0	47
3	4	0	4
3	14	0	12
3	122	0	35
4	5	0	5
4	40	0	23
5	6	0	6
5	16	0	12
5	38	0	23
5	66	0	29
5	76	0	33
5	166	0	42
5	234	0	47
6	7	0	7
6	28	0	18
6	54	0	28
6	60	0	29
6	158	0	40
7	8	0	8
7	15	0	12
7	17	0	12
7	24	0	17
7	58	0	29
7	62	0	29
7	84	0	33
7	94	0	33
7	170	0	43
8	9	0	9
8	74	0	32
8	96	0	33
8	294	0	47
9	11	0	10
9	64	0	29
9	102	0	33
9	128	0	36
9	250	0	47
10	12	0	11
10	150	0	40
11	13	0	12
11	88	0	33
11	120	0	35
12	18	0	13
12	78	0	33
12	92	0	33
12	246	0	47
13	19	0	14
13	39	0	23
13	56	0	29
13	90	0	33
13	222	0	47
14	20	0	15
14	26	0	17
14	46	0	26
14	114	0	35
14	146	0	40
14	162	0	41
14	226	0	47
15	22	0	16
15	25	0	17
15	82	0	33
15	106	0	33
15	132	0	36
16	23	0	17
16	100	0	33
16	254	0	47
17	27	0	18
18	29	0	19
18	112	0	34
18	154	0	40
19	30	0	20
19	86	0	33
19	214	0	46
19	242	0	47
20	33	0	21
20	49	0	27
20	138	0	36
21	34	0	22
22	36	0	23
22	374	0	49
23	42	0	24
23	104	0	33
24	43	0	25
24	45	0	26
24	126	0	36
24	142	0	38
25	44	0	26
26	47	0	27
27	50	0	28
27	98	0	33
27	182	0	44
27	330	0	49
28	70	0	30
28	274	0	47
29	72	0	32
30	80	0	33
30	118	0	35
31	108	0	33
31	134	0	36
31	140	0	37
31	382	0	49
32	110	0	34
32	116	0	35
32	174	0	43
32	262	0	47
32	326	0	49
32	390	0	50
33	124	0	36
33	144	0	39
33	148	0	40
34	178	0	44
34	266	0	47
35	186	0	44
35	350	0	49
36	190	0	44
36	290	0	47
36	310	0	48
37	194	0	45
37	202	0	46
38	198	0	45
38	334	0	49
38	346	0	49
39	206	0	46
39	258	0	47
39	278	0	47
39	314	0	48
40	210	0	46
40	302	0	47
40	322	0	49
40	342	0	49
41	270	0	47
42	282	0	47
42	306	0	47
42	318	0	48
43	286	0	47
43	298	0	47
44	338	0	49
45	358	0	49

