file 4790 1754681892                                            
version 3
run General-228-20250808-22:38:12-6760
attr configname General
attr datetime 20250808-22:38:12
attr datetimef 20250808-223812
attr experiment General
attr inifile omnetpp.ini
attr iterationvars ""
attr iterationvarsd ""
attr iterationvarsf ""
attr measurement ""
attr network RGG
attr processid 6760
attr repetition 228
attr replication #228
attr resultdir results
attr runnumber 228
attr seedset 228
config network RGG
config seed-set 228
config num-rngs 1
config sim-time-limit 10s
config repeat 500
config **.node[*].xCor "uniform(0.0, 1.0, 0)"
config **.node[*].yCor "uniform(0.0, 1.0, 0)"
config *.numWalkers 1
config *.numNodes 50
config *.enableDuplication true
config *.rc 0.4

vector 0 RGG.node[41] visitedPerTimestep ETV
vector 1 RGG.node[37] visitedPerTimestep ETV
vector 2 RGG.node[39] visitedPerTimestep ETV
vector 3 RGG.node[44] visitedPerTimestep ETV
vector 4 RGG.node[18] visitedPerTimestep ETV
vector 5 RGG.node[10] visitedPerTimestep ETV
vector 6 RGG.node[49] visitedPerTimestep ETV
vector 7 RGG.node[6] visitedPerTimestep ETV
vector 8 RGG.node[4] visitedPerTimestep ETV
vector 9 RGG.node[14] visitedPerTimestep ETV
vector 10 RGG.node[35] visitedPerTimestep ETV
vector 11 RGG.node[20] visitedPerTimestep ETV
vector 12 RGG.node[8] visitedPerTimestep ETV
vector 13 RGG.node[40] visitedPerTimestep ETV
vector 14 RGG.node[1] visitedPerTimestep ETV
vector 15 RGG.node[45] visitedPerTimestep ETV
vector 16 RGG.node[17] visitedPerTimestep ETV
vector 17 RGG.node[34] visitedPerTimestep ETV
vector 18 RGG.node[22] visitedPerTimestep ETV
vector 19 RGG.node[31] visitedPerTimestep ETV
vector 20 RGG.node[19] visitedPerTimestep ETV
vector 21 RGG.node[23] visitedPerTimestep ETV
vector 22 RGG.node[24] visitedPerTimestep ETV
vector 23 RGG.node[25] visitedPerTimestep ETV
vector 24 RGG.node[46] visitedPerTimestep ETV
vector 25 RGG.node[47] visitedPerTimestep ETV
vector 26 RGG.node[42] visitedPerTimestep ETV
vector 27 RGG.node[12] visitedPerTimestep ETV
vector 28 RGG.node[30] visitedPerTimestep ETV
vector 29 RGG.node[33] visitedPerTimestep ETV
vector 30 RGG.node[0] visitedPerTimestep ETV
vector 31 RGG.node[5] visitedPerTimestep ETV
vector 32 RGG.node[13] visitedPerTimestep ETV
vector 33 RGG.node[11] visitedPerTimestep ETV
vector 34 RGG.node[3] visitedPerTimestep ETV
vector 35 RGG.node[21] visitedPerTimestep ETV
vector 36 RGG.node[32] visitedPerTimestep ETV
vector 37 RGG.node[43] visitedPerTimestep ETV
vector 38 RGG.node[36] visitedPerTimestep ETV
vector 39 RGG.node[2] visitedPerTimestep ETV
vector 40 RGG.node[9] visitedPerTimestep ETV
vector 41 RGG.node[27] visitedPerTimestep ETV
vector 42 RGG.node[7] visitedPerTimestep ETV
vector 43 RGG.node[16] visitedPerTimestep ETV
vector 44 RGG.node[38] visitedPerTimestep ETV
vector 45 RGG.node[15] visitedPerTimestep ETV
0	2792 30 1 366 0 0 3 1 49 92 4166
1	2822 48 2 254 0 0 5 2 47 126 4810
2	2870 19 3 258 0 0 2 3 47 50 2218
3	2889 38 4 334 0 0 4 4 48 107 4673
4	2927 73 5 374 0 0 7 5 49 260 11142
5	3000 41 6 518 0 0 4 6 49 147 6687
6	3041 38 7 46 0 0 4 7 28 73 1683
7	3079 30 10 338 0 0 3 8 48 84 3152
8	3109 61 11 330 0 0 6 9 48 178 6726
9	3170 75 12 454 0 0 7 10 49 271 11681
10	3245 58 14 430 0 0 5 11 49 182 7732
11	3303 45 16 138 0 0 4 12 45 104 3314
12	3348 11 17 17 0 0 1 13 13 13 169
13	3359 47 18 446 0 0 4 14 49 158 7110
14	3406 80 19 478 0 0 7 15 49 244 9854
15	3486 34 20 318 0 0 3 16 48 105 4241
16	3520 11 21 21 0 0 1 17 17 17 289
17	3531 91 23 502 0 0 8 18 49 262 9662
18	3622 69 24 242 0 0 6 19 47 214 8408
19	3691 68 26 230 0 0 6 20 46 191 6721
20	3759 35 27 306 0 0 3 21 48 115 4861
21	3794 58 30 566 0 0 5 22 49 200 8648
22	3852 35 32 494 0 0 3 23 49 118 5046
23	3887 23 33 186 0 0 2 24 46 70 2692
24	3910 69 35 286 0 0 6 25 48 237 9739
25	3979 46 37 534 0 0 4 26 49 160 6694
26	4025 11 38 38 0 0 1 27 27 27 729
27	4036 47 42 210 0 0 4 28 46 163 6861
28	4083 59 52 414 0 0 5 30 49 217 9655
29	4142 118 58 526 0 0 10 32 49 441 19717
30	4260 69 60 558 0 0 6 33 49 256 11142
31	4329 23 62 322 0 0 2 34 48 82 3460
32	4352 23 64 314 0 0 2 35 48 83 3529
33	4375 47 68 214 0 0 4 36 46 172 7462
34	4422 69 72 206 0 0 6 38 46 253 10735
35	4491 47 88 294 0 0 4 41 48 181 8217
36	4538 59 90 290 0 0 5 41 48 226 10250
37	4597 24 106 346 0 0 2 42 49 91 4165
38	4621 48 112 390 0 0 4 43 49 186 8676
39	4669 12 262 262 0 0 1 48 48 48 2304
40	4681 24 266 342 0 0 2 48 48 96 4608
41	4705 24 350 550 0 0 2 49 49 98 4802
42	4729 12 382 382 0 0 1 49 49 49 2401
43	4741 12 398 398 0 0 1 49 49 49 2401
44	4753 24 422 438 0 0 2 49 49 98 4802
45	4777 12 574 574 0 0 1 50 50 50 2500

