file 7594 1753814219                                            
version 3
run General-91-20250729-21:36:59-51738
attr configname General
attr datetime 20250729-21:36:59
attr datetimef 20250729-213659
attr experiment General
attr inifile omnetpp.ini
attr iterationvars ""
attr iterationvarsd ""
attr iterationvarsf ""
attr measurement ""
attr network RGG
attr processid 51738
attr repetition 91
attr replication #91
attr resultdir results
attr runnumber 91
attr seedset 91
config network RGG
config seed-set 91
config num-rngs 1
config sim-time-limit 10s
config repeat 500
config **.node[*].xCor "uniform(0.0, 1.0, 0)"
config **.node[*].yCor "uniform(0.0, 1.0, 0)"
config *.numWalkers 2
config *.numNodes 50
config *.enableDuplication false
config *.rc 0.33

vector 0 RGG.node[2] visitedPerTimestep ETV
vector 1 RGG.node[32] visitedPerTimestep ETV
vector 2 RGG.node[7] visitedPerTimestep ETV
vector 3 RGG.node[5] visitedPerTimestep ETV
vector 4 RGG.node[35] visitedPerTimestep ETV
vector 5 RGG.node[13] visitedPerTimestep ETV
vector 6 RGG.node[26] visitedPerTimestep ETV
vector 7 RGG.node[40] visitedPerTimestep ETV
vector 8 RGG.node[14] visitedPerTimestep ETV
vector 9 RGG.node[34] visitedPerTimestep ETV
vector 10 RGG.node[41] visitedPerTimestep ETV
vector 11 RGG.node[15] visitedPerTimestep ETV
vector 12 RGG.node[44] visitedPerTimestep ETV
vector 13 RGG.node[27] visitedPerTimestep ETV
vector 14 RGG.node[30] visitedPerTimestep ETV
vector 15 RGG.node[33] visitedPerTimestep ETV
vector 16 RGG.node[46] visitedPerTimestep ETV
vector 17 RGG.node[38] visitedPerTimestep ETV
vector 18 RGG.node[18] visitedPerTimestep ETV
vector 19 RGG.node[9] visitedPerTimestep ETV
vector 20 RGG.node[48] visitedPerTimestep ETV
vector 21 RGG.node[42] visitedPerTimestep ETV
vector 22 RGG.node[6] visitedPerTimestep ETV
vector 23 RGG.node[21] visitedPerTimestep ETV
vector 24 RGG.node[19] visitedPerTimestep ETV
vector 25 RGG.node[36] visitedPerTimestep ETV
vector 26 RGG.node[8] visitedPerTimestep ETV
vector 27 RGG.node[49] visitedPerTimestep ETV
vector 28 RGG.node[23] visitedPerTimestep ETV
vector 29 RGG.node[16] visitedPerTimestep ETV
vector 30 RGG.node[31] visitedPerTimestep ETV
vector 31 RGG.node[45] visitedPerTimestep ETV
vector 32 RGG.node[29] visitedPerTimestep ETV
vector 33 RGG.node[1] visitedPerTimestep ETV
vector 34 RGG.node[43] visitedPerTimestep ETV
vector 35 RGG.node[4] visitedPerTimestep ETV
vector 36 RGG.node[22] visitedPerTimestep ETV
vector 37 RGG.node[17] visitedPerTimestep ETV
vector 38 RGG.node[25] visitedPerTimestep ETV
vector 39 RGG.node[37] visitedPerTimestep ETV
vector 40 RGG.node[24] visitedPerTimestep ETV
vector 41 RGG.node[0] visitedPerTimestep ETV
vector 42 RGG.node[39] visitedPerTimestep ETV
vector 43 RGG.node[3] visitedPerTimestep ETV
vector 44 RGG.node[47] visitedPerTimestep ETV
vector 45 RGG.node[11] visitedPerTimestep ETV
vector 46 RGG.node[20] visitedPerTimestep ETV
vector 47 RGG.node[12] visitedPerTimestep ETV
vector 48 RGG.node[28] visitedPerTimestep ETV
vector 49 RGG.node[10] visitedPerTimestep ETV
0	2974 138 2 680 0 0 13 2 49 521 23977
1	3112 128 4 750 0 0 12 3 49 515 24275
2	3240 63 6 658 0 0 6 4 49 238 11016
3	3303 107 8 794 0 0 10 6 49 432 20232
4	3410 184 10 764 0 0 17 6 49 733 33485
5	3594 140 12 772 0 0 13 8 49 572 26874
6	3734 130 14 784 0 0 12 9 49 547 26395
7	3864 171 18 780 0 0 16 11 49 667 29681
8	4035 97 20 782 0 0 9 13 49 356 15824
9	4132 141 22 728 0 0 13 15 49 568 26064
10	4273 154 26 788 0 0 13 18 49 570 25962
11	4427 70 28 792 0 0 6 19 49 228 9654
12	4497 201 30 798 0 0 17 20 49 747 34079
13	4698 93 34 724 0 0 8 23 49 325 14163
14	4791 34 36 710 0 0 3 24 49 100 3706
15	4825 47 38 712 0 0 4 25 49 172 7828
16	4872 22 40 44 0 0 2 26 27 53 1405
17	4894 22 42 46 0 0 2 27 27 54 1458
18	4916 83 54 748 0 0 7 28 49 305 13637
19	4999 83 56 730 0 0 7 29 49 319 14871
20	5082 143 58 790 0 0 12 30 49 561 26559
21	5225 106 74 778 0 0 9 31 49 406 18792
22	5331 177 80 796 0 0 15 31 49 672 30758
23	5508 82 84 734 0 0 7 32 49 310 14118
24	5590 83 96 618 0 0 7 34 49 320 14810
25	5673 168 102 786 0 0 14 35 49 656 30934
26	5841 120 108 594 0 0 10 39 49 468 22002
27	5961 72 118 414 0 0 6 42 49 281 13193
28	6033 48 120 638 0 0 4 42 49 185 8585
29	6081 72 122 674 0 0 6 42 49 286 13672
30	6153 84 124 676 0 0 7 43 49 327 15317
31	6237 96 126 774 0 0 8 43 49 378 17904
32	6333 48 134 672 0 0 4 45 49 188 8852
33	6381 156 136 776 0 0 13 45 49 613 28951
34	6537 132 144 762 0 0 11 45 49 515 24155
35	6669 48 154 528 0 0 4 45 49 192 9228
36	6717 144 170 642 0 0 12 45 49 573 27395
37	6861 132 186 682 0 0 11 45 49 527 25277
38	6993 108 188 686 0 0 9 45 49 426 20190
39	7101 60 230 684 0 0 5 45 49 234 10962
40	7161 48 262 726 0 0 4 46 49 193 9319
41	7209 48 270 416 0 0 4 46 49 192 9222
42	7257 96 278 438 0 0 8 46 49 386 18632
43	7353 48 280 442 0 0 4 46 49 193 9319
44	7401 36 324 436 0 0 3 48 49 146 7106
45	7437 60 402 678 0 0 5 49 49 245 12005
46	7497 24 448 632 0 0 2 49 49 98 4802
47	7521 48 532 622 0 0 4 49 49 196 9604
48	7569 12 630 630 0 0 1 49 49 49 2401
49	7581 12 800 800 0 0 1 50 50 50 2500

