version 3
run General-230-20250808-22:38:12-6760
attr configname General
attr datetime 20250808-22:38:12
attr datetimef 20250808-223812
attr experiment General
attr inifile omnetpp.ini
attr iterationvars ""
attr iterationvarsd ""
attr iterationvarsf ""
attr measurement ""
attr network RGG
attr processid 6760
attr repetition 230
attr replication #230
attr resultdir results
attr runnumber 230
attr seedset 230
config network RGG
config seed-set 230
config num-rngs 1
config sim-time-limit 10s
config repeat 500
config **.node[*].xCor "uniform(0.0, 1.0, 0)"
config **.node[*].yCor "uniform(0.0, 1.0, 0)"
config *.numWalkers 1
config *.numNodes 50
config *.enableDuplication true
config *.rc 0.4

vector 0 RGG.node[47] visitedPerTimestep ETV
vector 1 RGG.node[45] visitedPerTimestep ETV
vector 2 RGG.node[46] visitedPerTimestep ETV
vector 3 RGG.node[39] visitedPerTimestep ETV
vector 4 RGG.node[27] visitedPerTimestep ETV
vector 5 RGG.node[18] visitedPerTimestep ETV
vector 6 RGG.node[33] visitedPerTimestep ETV
vector 7 RGG.node[2] visitedPerTimestep ETV
vector 8 RGG.node[24] visitedPerTimestep ETV
vector 9 RGG.node[31] visitedPerTimestep ETV
vector 10 RGG.node[41] visitedPerTimestep ETV
vector 11 RGG.node[7] visitedPerTimestep ETV
vector 12 RGG.node[16] visitedPerTimestep ETV
vector 13 RGG.node[20] visitedPerTimestep ETV
vector 14 RGG.node[5] visitedPerTimestep ETV
vector 15 RGG.node[11] visitedPerTimestep ETV
vector 16 RGG.node[42] visitedPerTimestep ETV
vector 17 RGG.node[12] visitedPerTimestep ETV
vector 18 RGG.node[36] visitedPerTimestep ETV
vector 19 RGG.node[4] visitedPerTimestep ETV
vector 20 RGG.node[9] visitedPerTimestep ETV
vector 21 RGG.node[1] visitedPerTimestep ETV
vector 22 RGG.node[38] visitedPerTimestep ETV
vector 23 RGG.node[23] visitedPerTimestep ETV
vector 24 RGG.node[40] visitedPerTimestep ETV
vector 25 RGG.node[15] visitedPerTimestep ETV
vector 26 RGG.node[10] visitedPerTimestep ETV
vector 27 RGG.node[49] visitedPerTimestep ETV
vector 28 RGG.node[28] visitedPerTimestep ETV
vector 29 RGG.node[26] visitedPerTimestep ETV
vector 30 RGG.node[3] visitedPerTimestep ETV
vector 31 RGG.node[29] visitedPerTimestep ETV
vector 32 RGG.node[43] visitedPerTimestep ETV
vector 33 RGG.node[44] visitedPerTimestep ETV
vector 34 RGG.node[35] visitedPerTimestep ETV
vector 35 RGG.node[48] visitedPerTimestep ETV
vector 36 RGG.node[25] visitedPerTimestep ETV
vector 37 RGG.node[17] visitedPerTimestep ETV
vector 38 RGG.node[8] visitedPerTimestep ETV
vector 39 RGG.node[37] visitedPerTimestep ETV
vector 40 RGG.node[21] visitedPerTimestep ETV
vector 41 RGG.node[30] visitedPerTimestep ETV
vector 42 RGG.node[13] visitedPerTimestep ETV
vector 43 RGG.node[34] visitedPerTimestep ETV
vector 44 RGG.node[32] visitedPerTimestep ETV
0	1	0	1
0	11	0	9
0	15	0	10
0	19	0	12
0	58	0	37
0	70	0	39
1	2	0	2
1	4	0	3
1	60	0	37
1	206	0	48
1	358	0	48
2	3	0	3
2	86	0	40
2	116	0	43
2	124	0	43
2	130	0	43
2	170	0	47
2	314	0	48
2	438	0	49
3	5	0	4
3	108	0	43
3	150	0	45
3	218	0	48
3	318	0	48
3	374	0	49
4	6	0	5
5	7	0	6
5	56	0	37
5	138	0	45
5	174	0	48
5	190	0	48
5	202	0	48
5	398	0	49
6	8	0	7
6	14	0	10
6	50	0	34
6	128	0	43
6	350	0	48
7	9	0	8
7	49	0	34
7	82	0	40
7	114	0	43
7	430	0	49
8	10	0	9
8	12	0	9
8	17	0	11
8	52	0	35
8	446	0	50
9	13	0	10
9	80	0	39
9	126	0	43
9	322	0	48
10	16	0	11
10	76	0	39
10	330	0	48
11	18	0	12
11	72	0	39
12	20	0	13
12	24	0	15
12	68	0	39
12	102	0	43
12	110	0	43
12	286	0	48
13	21	0	14
13	23	0	15
13	29	0	19
13	238	0	48
14	22	0	15
15	25	0	16
15	214	0	48
15	226	0	48
15	246	0	48
15	302	0	48
15	382	0	49
16	26	0	17
16	106	0	43
16	298	0	48
17	27	0	18
17	258	0	48
18	28	0	19
18	186	0	48
18	242	0	48
18	274	0	48
19	30	0	20
19	230	0	48
19	294	0	48
20	31	0	21
20	35	0	24
21	32	0	22
21	36	0	24
22	33	0	23
22	98	0	42
22	222	0	48
22	282	0	48
22	366	0	48
23	34	0	24
23	66	0	39
23	120	0	43
24	37	0	25
24	64	0	38
25	38	0	26
25	96	0	41
25	142	0	45
25	148	0	45
26	39	0	27
27	40	0	28
27	45	0	31
27	88	0	40
27	94	0	41
27	122	0	43
28	41	0	29
28	44	0	31
28	162	0	46
29	42	0	30
29	154	0	45
29	278	0	48
30	43	0	31
30	144	0	45
30	158	0	46
31	46	0	32
31	92	0	41
32	47	0	33
32	84	0	40
32	118	0	43
32	166	0	47
33	48	0	34
33	112	0	43
33	182	0	48
34	54	0	37
34	78	0	39
34	338	0	48
34	406	0	49
34	422	0	49
35	62	0	38
35	146	0	45
36	74	0	39
36	198	0	48
36	326	0	48
36	346	0	48
37	90	0	41
38	100	0	43
38	210	0	48
38	266	0	48
38	290	0	48
38	310	0	48
38	390	0	49
39	104	0	43
39	132	0	43
39	136	0	44
39	140	0	45
39	178	0	48
39	250	0	48
39	262	0	48
40	134	0	44
40	306	0	48
41	194	0	48
41	342	0	48
42	234	0	48
43	254	0	48
43	270	0	48
44	334	0	48
44	414	0	49

