file 4058 1754681893                                            
version 3
run General-346-20250808-22:38:13-6955
attr configname General
attr datetime 20250808-22:38:13
attr datetimef 20250808-223813
attr experiment General
attr inifile omnetpp.ini
attr iterationvars ""
attr iterationvarsd ""
attr iterationvarsf ""
attr measurement ""
attr network RGG
attr processid 6955
attr repetition 346
attr replication #346
attr resultdir results
attr runnumber 346
attr seedset 346
config network RGG
config seed-set 346
config num-rngs 1
config sim-time-limit 10s
config repeat 500
config **.node[*].xCor "uniform(0.0, 1.0, 0)"
config **.node[*].yCor "uniform(0.0, 1.0, 0)"
config *.numWalkers 1
config *.numNodes 50
config *.enableDuplication true
config *.rc 0.4

vector 0 RGG.node[46] visitedPerTimestep ETV
vector 1 RGG.node[7] visitedPerTimestep ETV
vector 2 RGG.node[36] visitedPerTimestep ETV
vector 3 RGG.node[23] visitedPerTimestep ETV
vector 4 RGG.node[22] visitedPerTimestep ETV
vector 5 RGG.node[3] visitedPerTimestep ETV
vector 6 RGG.node[43] visitedPerTimestep ETV
vector 7 RGG.node[42] visitedPerTimestep ETV
vector 8 RGG.node[2] visitedPerTimestep ETV
vector 9 RGG.node[26] visitedPerTimestep ETV
vector 10 RGG.node[12] visitedPerTimestep ETV
vector 11 RGG.node[10] visitedPerTimestep ETV
vector 12 RGG.node[32] visitedPerTimestep ETV
vector 13 RGG.node[37] visitedPerTimestep ETV
vector 14 RGG.node[27] visitedPerTimestep ETV
vector 15 RGG.node[16] visitedPerTimestep ETV
vector 16 RGG.node[33] visitedPerTimestep ETV
vector 17 RGG.node[8] visitedPerTimestep ETV
vector 18 RGG.node[13] visitedPerTimestep ETV
vector 19 RGG.node[21] visitedPerTimestep ETV
vector 20 RGG.node[31] visitedPerTimestep ETV
vector 21 RGG.node[30] visitedPerTimestep ETV
vector 22 RGG.node[11] visitedPerTimestep ETV
vector 23 RGG.node[5] visitedPerTimestep ETV
vector 24 RGG.node[14] visitedPerTimestep ETV
vector 25 RGG.node[24] visitedPerTimestep ETV
vector 26 RGG.node[19] visitedPerTimestep ETV
vector 27 RGG.node[6] visitedPerTimestep ETV
vector 28 RGG.node[9] visitedPerTimestep ETV
vector 29 RGG.node[15] visitedPerTimestep ETV
vector 30 RGG.node[40] visitedPerTimestep ETV
vector 31 RGG.node[45] visitedPerTimestep ETV
vector 32 RGG.node[0] visitedPerTimestep ETV
vector 33 RGG.node[48] visitedPerTimestep ETV
vector 34 RGG.node[20] visitedPerTimestep ETV
vector 35 RGG.node[38] visitedPerTimestep ETV
vector 36 RGG.node[34] visitedPerTimestep ETV
vector 37 RGG.node[17] visitedPerTimestep ETV
vector 38 RGG.node[18] visitedPerTimestep ETV
vector 39 RGG.node[47] visitedPerTimestep ETV
vector 40 RGG.node[25] visitedPerTimestep ETV
vector 41 RGG.node[41] visitedPerTimestep ETV
0	2610 30 1 214 0 0 3 1 46 90 3966
1	2640 56 2 50 0 0 6 2 27 97 2175
2	2696 29 3 132 0 0 3 3 42 67 2257
3	2725 8 4 4 0 0 1 4 4 4 16
4	2733 60 6 242 0 0 6 5 47 180 6604
5	2793 50 7 218 0 0 5 6 46 136 4758
6	2843 38 8 88 0 0 4 7 36 79 2001
7	2881 70 9 230 0 0 7 8 47 193 6655
8	2951 50 10 234 0 0 5 9 47 131 4317
9	3001 42 11 246 0 0 4 10 47 136 5454
10	3043 55 12 96 0 0 5 11 36 114 3154
11	3098 56 13 194 0 0 5 12 44 155 5347
12	3154 70 15 238 0 0 6 13 47 212 8646
13	3224 22 16 34 0 0 2 14 21 35 637
14	3246 57 17 270 0 0 5 15 49 176 6860
15	3303 47 18 250 0 0 4 16 48 145 5853
16	3350 69 23 226 0 0 6 17 47 204 7724
17	3419 22 24 56 0 0 2 18 29 47 1165
18	3441 11 25 25 0 0 1 19 19 19 361
19	3452 35 28 202 0 0 3 20 46 109 4365
20	3487 33 31 60 0 0 3 21 30 78 2070
21	3520 35 38 134 0 0 3 22 43 105 3933
22	3555 22 41 43 0 0 2 23 24 47 1105
23	3577 11 42 42 0 0 1 24 24 24 576
24	3588 22 44 47 0 0 2 25 27 52 1354
25	3610 22 45 49 0 0 2 26 27 53 1405
26	3632 11 46 46 0 0 1 27 27 27 729
27	3643 34 64 170 0 0 3 33 43 109 4027
28	3677 11 76 76 0 0 1 34 34 34 1156
29	3688 22 78 92 0 0 2 35 36 71 2521
30	3710 11 84 84 0 0 1 36 36 36 1296
31	3721 36 100 142 0 0 3 37 43 122 4982
32	3757 72 104 274 0 0 6 39 49 269 12137
33	3829 36 106 140 0 0 3 39 43 124 5134
34	3865 36 108 278 0 0 3 39 50 129 5621
35	3901 12 110 110 0 0 1 39 39 39 1521
36	3913 36 112 144 0 0 3 40 43 123 5049
37	3949 24 120 258 0 0 2 41 48 89 3985
38	3973 24 126 162 0 0 2 42 43 85 3613
39	3997 24 138 266 0 0 2 43 49 92 4250
40	4021 12 198 198 0 0 1 45 45 45 2025
41	4033 24 210 254 0 0 2 46 48 94 4420

