version 3
run General-18-20250729-21:36:58-51621
attr configname General
attr datetime 20250729-21:36:58
attr datetimef 20250729-213658
attr experiment General
attr inifile omnetpp.ini
attr iterationvars ""
attr iterationvarsd ""
attr iterationvarsf ""
attr measurement ""
attr network RGG
attr processid 51621
attr repetition 18
attr replication #18
attr resultdir results
attr runnumber 18
attr seedset 18
config network RGG
config seed-set 18
config num-rngs 1
config sim-time-limit 10s
config repeat 500
config **.node[*].xCor "uniform(0.0, 1.0, 0)"
config **.node[*].yCor "uniform(0.0, 1.0, 0)"
config *.numWalkers 2
config *.numNodes 50
config *.enableDuplication false
config *.rc 0.33

vector 0 RGG.node[23] visitedPerTimestep ETV
vector 1 RGG.node[19] visitedPerTimestep ETV
vector 2 RGG.node[42] visitedPerTimestep ETV
vector 3 RGG.node[16] visitedPerTimestep ETV
vector 4 RGG.node[10] visitedPerTimestep ETV
vector 5 RGG.node[6] visitedPerTimestep ETV
vector 6 RGG.node[2] visitedPerTimestep ETV
vector 7 RGG.node[11] visitedPerTimestep ETV
vector 8 RGG.node[5] visitedPerTimestep ETV
vector 9 RGG.node[4] visitedPerTimestep ETV
vector 10 RGG.node[25] visitedPerTimestep ETV
vector 11 RGG.node[46] visitedPerTimestep ETV
vector 12 RGG.node[29] visitedPerTimestep ETV
vector 13 RGG.node[34] visitedPerTimestep ETV
vector 14 RGG.node[1] visitedPerTimestep ETV
vector 15 RGG.node[41] visitedPerTimestep ETV
vector 16 RGG.node[17] visitedPerTimestep ETV
vector 17 RGG.node[0] visitedPerTimestep ETV
vector 18 RGG.node[37] visitedPerTimestep ETV
vector 19 RGG.node[27] visitedPerTimestep ETV
vector 20 RGG.node[33] visitedPerTimestep ETV
vector 21 RGG.node[39] visitedPerTimestep ETV
vector 22 RGG.node[36] visitedPerTimestep ETV
vector 23 RGG.node[20] visitedPerTimestep ETV
vector 24 RGG.node[7] visitedPerTimestep ETV
vector 25 RGG.node[26] visitedPerTimestep ETV
vector 26 RGG.node[22] visitedPerTimestep ETV
vector 27 RGG.node[12] visitedPerTimestep ETV
vector 28 RGG.node[21] visitedPerTimestep ETV
vector 29 RGG.node[30] visitedPerTimestep ETV
vector 30 RGG.node[38] visitedPerTimestep ETV
vector 31 RGG.node[18] visitedPerTimestep ETV
vector 32 RGG.node[48] visitedPerTimestep ETV
vector 33 RGG.node[49] visitedPerTimestep ETV
vector 34 RGG.node[44] visitedPerTimestep ETV
vector 35 RGG.node[28] visitedPerTimestep ETV
0	2	0	2
0	44	0	26
0	48	0	27
0	52	0	27
0	104	0	42
0	136	0	43
1	4	0	4
1	40	0	24
1	66	0	30
1	94	0	40
1	112	0	42
1	148	0	45
2	6	0	6
2	36	0	22
2	108	0	42
2	114	0	42
2	158	0	46
2	204	0	49
2	208	0	49
3	8	0	8
3	34	0	21
3	160	0	46
3	240	0	49
4	10	0	8
4	62	0	30
4	110	0	42
4	166	0	46
4	234	0	49
5	12	0	8
5	16	0	11
5	56	0	28
5	78	0	34
5	150	0	45
5	174	0	46
6	14	0	10
6	20	0	13
7	18	0	13
7	64	0	30
7	70	0	31
7	106	0	42
7	164	0	46
8	22	0	15
9	24	0	16
9	88	0	40
9	236	0	49
10	26	0	17
10	76	0	33
10	90	0	40
10	142	0	44
11	28	0	18
11	154	0	45
12	30	0	19
12	50	0	27
12	92	0	40
12	116	0	42
12	144	0	44
12	206	0	49
13	32	0	20
13	58	0	28
13	80	0	35
13	84	0	37
14	38	0	24
14	82	0	36
14	146	0	45
14	224	0	49
14	232	0	49
14	242	0	50
15	42	0	25
15	46	0	27
15	128	0	43
15	134	0	43
15	190	0	49
15	198	0	49
16	54	0	28
16	68	0	31
16	74	0	33
16	120	0	43
16	152	0	45
16	176	0	47
17	60	0	29
17	238	0	49
18	72	0	32
18	226	0	49
19	86	0	39
20	96	0	42
20	138	0	44
20	168	0	46
21	98	0	42
21	122	0	43
21	126	0	43
21	182	0	48
21	202	0	49
22	100	0	42
22	180	0	47
23	102	0	42
23	178	0	47
23	196	0	49
24	118	0	43
24	140	0	44
24	170	0	46
25	124	0	43
25	130	0	43
25	188	0	49
26	132	0	43
26	194	0	49
26	200	0	49
27	156	0	46
27	162	0	46
27	172	0	46
28	184	0	49
28	210	0	49
28	228	0	49
29	186	0	49
30	192	0	49
31	212	0	49
31	216	0	49
32	214	0	49
33	218	0	49
34	220	0	49
35	222	0	49
35	230	0	49

