version 3
run General-444-20250808-22:38:14-7123
attr configname General
attr datetime 20250808-22:38:14
attr datetimef 20250808-223814
attr experiment General
attr inifile omnetpp.ini
attr iterationvars ""
attr iterationvarsd ""
attr iterationvarsf ""
attr measurement ""
attr network RGG
attr processid 7123
attr repetition 444
attr replication #444
attr resultdir results
attr runnumber 444
attr seedset 444
config network RGG
config seed-set 444
config num-rngs 1
config sim-time-limit 10s
config repeat 500
config **.node[*].xCor "uniform(0.0, 1.0, 0)"
config **.node[*].yCor "uniform(0.0, 1.0, 0)"
config *.numWalkers 1
config *.numNodes 50
config *.enableDuplication true
config *.rc 0.4

vector 0 RGG.node[29] visitedPerTimestep ETV
vector 1 RGG.node[30] visitedPerTimestep ETV
vector 2 RGG.node[22] visitedPerTimestep ETV
vector 3 RGG.node[19] visitedPerTimestep ETV
vector 4 RGG.node[25] visitedPerTimestep ETV
vector 5 RGG.node[44] visitedPerTimestep ETV
vector 6 RGG.node[2] visitedPerTimestep ETV
vector 7 RGG.node[23] visitedPerTimestep ETV
vector 8 RGG.node[21] visitedPerTimestep ETV
vector 9 RGG.node[0] visitedPerTimestep ETV
vector 10 RGG.node[13] visitedPerTimestep ETV
vector 11 RGG.node[37] visitedPerTimestep ETV
vector 12 RGG.node[1] visitedPerTimestep ETV
vector 13 RGG.node[17] visitedPerTimestep ETV
vector 14 RGG.node[34] visitedPerTimestep ETV
vector 15 RGG.node[47] visitedPerTimestep ETV
vector 16 RGG.node[16] visitedPerTimestep ETV
vector 17 RGG.node[8] visitedPerTimestep ETV
vector 18 RGG.node[49] visitedPerTimestep ETV
vector 19 RGG.node[43] visitedPerTimestep ETV
vector 20 RGG.node[11] visitedPerTimestep ETV
vector 21 RGG.node[10] visitedPerTimestep ETV
vector 22 RGG.node[15] visitedPerTimestep ETV
vector 23 RGG.node[9] visitedPerTimestep ETV
vector 24 RGG.node[20] visitedPerTimestep ETV
vector 25 RGG.node[6] visitedPerTimestep ETV
vector 26 RGG.node[31] visitedPerTimestep ETV
vector 27 RGG.node[38] visitedPerTimestep ETV
vector 28 RGG.node[40] visitedPerTimestep ETV
vector 29 RGG.node[45] visitedPerTimestep ETV
vector 30 RGG.node[41] visitedPerTimestep ETV
vector 31 RGG.node[3] visitedPerTimestep ETV
vector 32 RGG.node[36] visitedPerTimestep ETV
vector 33 RGG.node[4] visitedPerTimestep ETV
vector 34 RGG.node[48] visitedPerTimestep ETV
vector 35 RGG.node[12] visitedPerTimestep ETV
vector 36 RGG.node[24] visitedPerTimestep ETV
vector 37 RGG.node[32] visitedPerTimestep ETV
vector 38 RGG.node[5] visitedPerTimestep ETV
vector 39 RGG.node[27] visitedPerTimestep ETV
vector 40 RGG.node[26] visitedPerTimestep ETV
vector 41 RGG.node[42] visitedPerTimestep ETV
vector 42 RGG.node[46] visitedPerTimestep ETV
0	1	0	1
1	2	0	2
1	214	0	47
2	3	0	3
2	10	0	8
2	210	0	46
3	4	0	4
3	7	0	6
3	25	0	19
3	162	0	43
3	198	0	45
3	230	0	47
3	242	0	47
4	5	0	5
4	41	0	27
5	6	0	6
5	28	0	20
5	74	0	36
6	8	0	7
6	13	0	10
6	18	0	13
6	39	0	27
6	45	0	27
6	47	0	27
6	50	0	27
6	206	0	46
6	226	0	47
6	234	0	47
6	266	0	48
7	9	0	8
7	14	0	10
7	32	0	22
7	278	0	48
8	11	0	9
8	43	0	27
9	12	0	10
9	194	0	45
10	15	0	11
10	166	0	43
10	174	0	43
11	16	0	12
11	40	0	27
11	170	0	43
11	190	0	44
11	238	0	47
11	374	0	50
12	17	0	13
12	218	0	47
13	19	0	14
13	52	0	28
13	254	0	48
13	262	0	48
13	330	0	49
14	20	0	15
14	80	0	37
14	100	0	38
14	138	0	42
14	326	0	49
15	21	0	16
15	64	0	31
15	94	0	38
15	134	0	42
15	144	0	42
15	158	0	42
15	346	0	49
16	22	0	17
16	132	0	42
16	250	0	48
17	23	0	18
17	54	0	28
17	84	0	37
17	126	0	42
17	142	0	42
18	24	0	19
18	26	0	19
18	31	0	22
18	46	0	27
18	48	0	27
19	27	0	20
19	49	0	27
20	29	0	21
20	44	0	27
20	202	0	45
20	302	0	49
21	30	0	22
21	42	0	27
21	358	0	49
22	33	0	23
22	38	0	27
22	102	0	38
22	122	0	42
22	274	0	48
22	282	0	48
23	34	0	24
23	56	0	28
23	96	0	38
23	128	0	42
23	140	0	42
23	148	0	42
23	286	0	48
23	322	0	49
24	35	0	25
24	82	0	37
24	114	0	42
24	120	0	42
25	36	0	26
25	116	0	42
25	136	0	42
25	294	0	48
25	334	0	49
26	37	0	27
26	58	0	29
26	98	0	38
26	124	0	42
26	290	0	48
27	60	0	30
27	68	0	33
27	314	0	49
28	62	0	31
28	66	0	32
28	104	0	39
28	146	0	42
28	150	0	42
28	246	0	48
28	270	0	48
28	298	0	49
28	342	0	49
29	70	0	35
29	310	0	49
30	72	0	36
30	76	0	36
31	78	0	37
31	182	0	44
31	350	0	49
31	366	0	49
32	86	0	37
33	88	0	38
34	90	0	38
34	110	0	42
35	92	0	38
35	154	0	42
35	338	0	49
36	106	0	41
37	108	0	42
38	112	0	42
38	118	0	42
38	130	0	42
38	258	0	48
39	178	0	44
39	306	0	49
40	186	0	44
41	222	0	47
42	318	0	49

