version 3
run General-439-20250729-21:37:07-52333
attr configname General
attr datetime 20250729-21:37:07
attr datetimef 20250729-213707
attr experiment General
attr inifile omnetpp.ini
attr iterationvars ""
attr iterationvarsd ""
attr iterationvarsf ""
attr measurement ""
attr network RGG
attr processid 52333
attr repetition 439
attr replication #439
attr resultdir results
attr runnumber 439
attr seedset 439
config network RGG
config seed-set 439
config num-rngs 1
config sim-time-limit 10s
config repeat 500
config **.node[*].xCor "uniform(0.0, 1.0, 0)"
config **.node[*].yCor "uniform(0.0, 1.0, 0)"
config *.numWalkers 2
config *.numNodes 50
config *.enableDuplication false
config *.rc 0.33

vector 0 RGG.node[23] visitedPerTimestep ETV
vector 1 RGG.node[49] visitedPerTimestep ETV
vector 2 RGG.node[41] visitedPerTimestep ETV
vector 3 RGG.node[43] visitedPerTimestep ETV
vector 4 RGG.node[36] visitedPerTimestep ETV
vector 5 RGG.node[37] visitedPerTimestep ETV
vector 6 RGG.node[2] visitedPerTimestep ETV
vector 7 RGG.node[19] visitedPerTimestep ETV
vector 8 RGG.node[5] visitedPerTimestep ETV
vector 9 RGG.node[8] visitedPerTimestep ETV
vector 10 RGG.node[34] visitedPerTimestep ETV
vector 11 RGG.node[16] visitedPerTimestep ETV
vector 12 RGG.node[10] visitedPerTimestep ETV
vector 13 RGG.node[1] visitedPerTimestep ETV
vector 14 RGG.node[3] visitedPerTimestep ETV
vector 15 RGG.node[15] visitedPerTimestep ETV
vector 16 RGG.node[14] visitedPerTimestep ETV
vector 17 RGG.node[46] visitedPerTimestep ETV
vector 18 RGG.node[12] visitedPerTimestep ETV
vector 19 RGG.node[18] visitedPerTimestep ETV
vector 20 RGG.node[27] visitedPerTimestep ETV
vector 21 RGG.node[0] visitedPerTimestep ETV
vector 22 RGG.node[30] visitedPerTimestep ETV
vector 23 RGG.node[42] visitedPerTimestep ETV
vector 24 RGG.node[21] visitedPerTimestep ETV
vector 25 RGG.node[38] visitedPerTimestep ETV
vector 26 RGG.node[4] visitedPerTimestep ETV
vector 27 RGG.node[17] visitedPerTimestep ETV
vector 28 RGG.node[22] visitedPerTimestep ETV
vector 29 RGG.node[11] visitedPerTimestep ETV
vector 30 RGG.node[7] visitedPerTimestep ETV
vector 31 RGG.node[47] visitedPerTimestep ETV
vector 32 RGG.node[9] visitedPerTimestep ETV
vector 33 RGG.node[29] visitedPerTimestep ETV
vector 34 RGG.node[48] visitedPerTimestep ETV
vector 35 RGG.node[20] visitedPerTimestep ETV
vector 36 RGG.node[13] visitedPerTimestep ETV
vector 37 RGG.node[28] visitedPerTimestep ETV
vector 38 RGG.node[35] visitedPerTimestep ETV
vector 39 RGG.node[26] visitedPerTimestep ETV
vector 40 RGG.node[24] visitedPerTimestep ETV
vector 41 RGG.node[6] visitedPerTimestep ETV
vector 42 RGG.node[39] visitedPerTimestep ETV
vector 43 RGG.node[31] visitedPerTimestep ETV
vector 44 RGG.node[44] visitedPerTimestep ETV
vector 45 RGG.node[32] visitedPerTimestep ETV
0	2	0	2
0	98	0	40
0	164	0	46
0	180	0	46
0	196	0	46
0	200	0	47
0	242	0	48
0	260	0	49
0	370	0	49
0	420	0	49
1	4	0	4
1	134	0	46
1	192	0	46
1	306	0	49
1	344	0	49
1	390	0	49
1	406	0	49
1	446	0	49
1	454	0	49
1	490	0	49
1	526	0	49
2	6	0	6
2	108	0	41
2	204	0	47
2	226	0	48
2	380	0	49
2	386	0	49
2	478	0	49
2	512	0	49
3	8	0	8
3	136	0	46
3	176	0	46
3	188	0	46
3	232	0	48
3	244	0	48
3	310	0	49
3	314	0	49
3	324	0	49
3	398	0	49
3	482	0	49
3	494	0	49
3	544	0	49
4	10	0	10
4	128	0	46
4	320	0	49
4	336	0	49
4	394	0	49
4	458	0	49
4	542	0	49
5	12	0	11
5	124	0	46
5	148	0	46
5	168	0	46
5	274	0	49
5	312	0	49
5	318	0	49
5	342	0	49
5	402	0	49
5	436	0	49
5	448	0	49
5	528	0	49
6	14	0	13
6	142	0	46
6	152	0	46
6	158	0	46
6	352	0	49
7	16	0	14
7	122	0	45
7	126	0	46
7	186	0	46
7	358	0	49
7	444	0	49
7	450	0	49
7	464	0	49
7	520	0	49
8	18	0	16
8	24	0	18
8	28	0	21
8	202	0	47
8	258	0	49
8	266	0	49
8	278	0	49
8	332	0	49
8	348	0	49
8	362	0	49
8	378	0	49
8	410	0	49
8	456	0	49
8	498	0	49
9	20	0	16
9	30	0	22
9	56	0	34
9	162	0	46
9	238	0	48
9	286	0	49
9	330	0	49
9	346	0	49
9	442	0	49
9	460	0	49
10	22	0	18
10	130	0	46
10	302	0	49
10	408	0	49
10	422	0	49
11	26	0	20
11	172	0	46
11	184	0	46
11	366	0	49
11	480	0	49
11	524	0	49
11	534	0	49
12	32	0	24
12	40	0	29
12	60	0	34
12	554	0	49
13	34	0	25
13	88	0	38
14	36	0	27
14	64	0	34
14	74	0	34
15	38	0	29
15	52	0	33
15	62	0	34
16	42	0	29
16	46	0	31
16	68	0	34
17	44	0	30
18	48	0	32
18	78	0	35
18	84	0	37
19	50	0	33
20	54	0	34
20	70	0	34
20	90	0	39
21	58	0	34
21	300	0	49
21	416	0	49
21	470	0	49
22	66	0	34
22	72	0	34
23	76	0	35
24	80	0	36
25	82	0	37
26	86	0	38
27	92	0	39
27	222	0	48
27	556	0	50
28	94	0	40
28	208	0	47
28	214	0	47
28	282	0	49
28	296	0	49
29	96	0	40
29	104	0	41
29	110	0	42
29	280	0	49
29	284	0	49
29	288	0	49
30	100	0	41
30	114	0	44
30	224	0	48
30	268	0	49
30	304	0	49
30	418	0	49
30	500	0	49
30	508	0	49
31	102	0	41
31	116	0	44
31	388	0	49
32	106	0	41
32	198	0	46
32	206	0	47
32	212	0	47
32	218	0	47
32	290	0	49
32	294	0	49
32	298	0	49
32	382	0	49
32	506	0	49
33	112	0	44
33	210	0	47
33	216	0	47
33	292	0	49
33	384	0	49
33	504	0	49
34	118	0	45
34	228	0	48
34	412	0	49
34	488	0	49
35	120	0	45
35	170	0	46
35	174	0	46
35	230	0	48
35	254	0	48
35	338	0	49
35	360	0	49
35	400	0	49
35	462	0	49
35	486	0	49
35	530	0	49
35	548	0	49
36	132	0	46
36	138	0	46
36	190	0	46
36	236	0	48
36	246	0	48
36	308	0	49
36	322	0	49
36	404	0	49
36	428	0	49
36	474	0	49
36	492	0	49
36	532	0	49
36	538	0	49
36	546	0	49
37	140	0	46
37	160	0	46
37	252	0	48
37	326	0	49
37	334	0	49
37	350	0	49
37	356	0	49
37	430	0	49
37	438	0	49
37	496	0	49
38	144	0	46
38	154	0	46
39	146	0	46
39	150	0	46
39	156	0	46
39	354	0	49
40	166	0	46
40	178	0	46
40	248	0	48
40	276	0	49
40	374	0	49
40	392	0	49
40	426	0	49
40	432	0	49
40	466	0	49
40	514	0	49
41	182	0	46
41	250	0	48
41	256	0	49
41	262	0	49
41	270	0	49
41	328	0	49
41	372	0	49
41	376	0	49
41	434	0	49
41	452	0	49
41	510	0	49
41	522	0	49
41	550	0	49
42	194	0	46
42	396	0	49
42	424	0	49
42	516	0	49
42	536	0	49
42	540	0	49
43	220	0	48
43	502	0	49
44	234	0	48
44	240	0	48
44	264	0	49
44	272	0	49
44	316	0	49
44	340	0	49
44	364	0	49
44	368	0	49
44	414	0	49
44	440	0	49
44	468	0	49
44	472	0	49
44	476	0	49
44	484	0	49
44	518	0	49
45	552	0	49

