version 3
run General-175-20250808-22:38:11-6670
attr configname General
attr datetime 20250808-22:38:11
attr datetimef 20250808-223811
attr experiment General
attr inifile omnetpp.ini
attr iterationvars ""
attr iterationvarsd ""
attr iterationvarsf ""
attr measurement ""
attr network RGG
attr processid 6670
attr repetition 175
attr replication #175
attr resultdir results
attr runnumber 175
attr seedset 175
config network RGG
config seed-set 175
config num-rngs 1
config sim-time-limit 10s
config repeat 500
config **.node[*].xCor "uniform(0.0, 1.0, 0)"
config **.node[*].yCor "uniform(0.0, 1.0, 0)"
config *.numWalkers 1
config *.numNodes 50
config *.enableDuplication true
config *.rc 0.4

vector 0 RGG.node[10] visitedPerTimestep ETV
vector 1 RGG.node[39] visitedPerTimestep ETV
vector 2 RGG.node[28] visitedPerTimestep ETV
vector 3 RGG.node[6] visitedPerTimestep ETV
vector 4 RGG.node[47] visitedPerTimestep ETV
vector 5 RGG.node[3] visitedPerTimestep ETV
vector 6 RGG.node[16] visitedPerTimestep ETV
vector 7 RGG.node[18] visitedPerTimestep ETV
vector 8 RGG.node[42] visitedPerTimestep ETV
vector 9 RGG.node[5] visitedPerTimestep ETV
vector 10 RGG.node[49] visitedPerTimestep ETV
vector 11 RGG.node[40] visitedPerTimestep ETV
vector 12 RGG.node[14] visitedPerTimestep ETV
vector 13 RGG.node[44] visitedPerTimestep ETV
vector 14 RGG.node[24] visitedPerTimestep ETV
vector 15 RGG.node[46] visitedPerTimestep ETV
vector 16 RGG.node[0] visitedPerTimestep ETV
vector 17 RGG.node[41] visitedPerTimestep ETV
vector 18 RGG.node[19] visitedPerTimestep ETV
vector 19 RGG.node[12] visitedPerTimestep ETV
vector 20 RGG.node[36] visitedPerTimestep ETV
vector 21 RGG.node[37] visitedPerTimestep ETV
vector 22 RGG.node[7] visitedPerTimestep ETV
vector 23 RGG.node[25] visitedPerTimestep ETV
vector 24 RGG.node[30] visitedPerTimestep ETV
vector 25 RGG.node[22] visitedPerTimestep ETV
vector 26 RGG.node[43] visitedPerTimestep ETV
vector 27 RGG.node[17] visitedPerTimestep ETV
vector 28 RGG.node[8] visitedPerTimestep ETV
vector 29 RGG.node[48] visitedPerTimestep ETV
vector 30 RGG.node[2] visitedPerTimestep ETV
vector 31 RGG.node[13] visitedPerTimestep ETV
vector 32 RGG.node[35] visitedPerTimestep ETV
vector 33 RGG.node[21] visitedPerTimestep ETV
vector 34 RGG.node[1] visitedPerTimestep ETV
vector 35 RGG.node[32] visitedPerTimestep ETV
vector 36 RGG.node[33] visitedPerTimestep ETV
vector 37 RGG.node[23] visitedPerTimestep ETV
vector 38 RGG.node[4] visitedPerTimestep ETV
vector 39 RGG.node[27] visitedPerTimestep ETV
vector 40 RGG.node[20] visitedPerTimestep ETV
vector 41 RGG.node[9] visitedPerTimestep ETV
vector 42 RGG.node[26] visitedPerTimestep ETV
vector 43 RGG.node[11] visitedPerTimestep ETV
vector 44 RGG.node[34] visitedPerTimestep ETV
vector 45 RGG.node[45] visitedPerTimestep ETV
vector 46 RGG.node[38] visitedPerTimestep ETV
0	1	0	1
0	60	0	29
0	80	0	37
0	128	0	44
0	142	0	46
0	146	0	46
0	374	0	49
1	2	0	2
1	118	0	42
1	314	0	49
2	3	0	3
2	6	0	5
2	35	0	22
2	246	0	48
2	270	0	48
2	390	0	49
2	430	0	49
3	4	0	4
3	34	0	22
3	48	0	27
3	96	0	40
3	206	0	48
4	5	0	5
4	282	0	48
4	414	0	49
5	7	0	6
5	18	0	14
5	22	0	16
5	140	0	46
5	222	0	48
5	238	0	48
5	258	0	48
5	338	0	49
5	382	0	49
6	8	0	7
6	130	0	44
6	144	0	46
6	230	0	48
7	9	0	8
7	62	0	29
7	90	0	39
8	10	0	9
8	12	0	10
8	29	0	19
8	58	0	29
8	64	0	29
8	68	0	31
8	108	0	40
8	112	0	40
8	132	0	44
8	148	0	46
8	166	0	47
8	182	0	48
8	250	0	48
8	262	0	48
9	11	0	10
9	13	0	10
9	28	0	19
9	134	0	44
9	138	0	46
10	14	0	11
10	20	0	15
10	74	0	34
10	234	0	48
11	15	0	12
11	37	0	23
11	76	0	34
11	84	0	38
11	342	0	49
12	16	0	13
12	94	0	40
12	446	0	49
13	17	0	14
13	106	0	40
13	218	0	48
13	318	0	49
13	438	0	49
14	19	0	15
14	24	0	17
14	39	0	23
14	42	0	23
14	70	0	32
14	110	0	40
14	136	0	45
14	154	0	47
14	190	0	48
15	21	0	16
15	126	0	44
15	358	0	49
16	23	0	17
16	31	0	20
16	50	0	28
16	194	0	48
17	25	0	18
17	27	0	19
17	41	0	23
17	158	0	47
18	26	0	19
18	38	0	23
18	40	0	23
18	162	0	47
18	170	0	47
19	30	0	20
19	46	0	26
19	66	0	30
19	100	0	40
20	32	0	21
20	198	0	48
20	478	0	49
21	33	0	22
21	98	0	40
21	102	0	40
22	36	0	23
22	116	0	41
22	254	0	48
22	266	0	48
23	43	0	24
23	56	0	29
23	178	0	48
23	186	0	48
24	44	0	25
24	330	0	49
25	45	0	26
25	54	0	29
25	174	0	48
25	326	0	49
25	334	0	49
26	47	0	27
26	422	0	49
27	49	0	28
27	104	0	40
27	150	0	46
27	242	0	48
27	278	0	48
27	322	0	49
27	454	0	49
28	52	0	29
28	462	0	49
28	486	0	50
29	72	0	33
29	124	0	44
30	78	0	36
30	122	0	44
31	82	0	38
31	88	0	39
31	298	0	48
31	366	0	49
32	86	0	39
32	310	0	49
33	92	0	40
33	226	0	48
33	274	0	48
34	114	0	41
34	346	0	49
35	120	0	44
36	202	0	48
37	210	0	48
37	406	0	49
38	214	0	48
39	286	0	48
40	290	0	48
41	294	0	48
42	302	0	49
43	306	0	49
44	350	0	49
45	398	0	49
46	470	0	49

