version 3
run General-261-20250729-21:37:02-52034
attr configname General
attr datetime 20250729-21:37:02
attr datetimef 20250729-213702
attr experiment General
attr inifile omnetpp.ini
attr iterationvars ""
attr iterationvarsd ""
attr iterationvarsf ""
attr measurement ""
attr network RGG
attr processid 52034
attr repetition 261
attr replication #261
attr resultdir results
attr runnumber 261
attr seedset 261
config network RGG
config seed-set 261
config num-rngs 1
config sim-time-limit 10s
config repeat 500
config **.node[*].xCor "uniform(0.0, 1.0, 0)"
config **.node[*].yCor "uniform(0.0, 1.0, 0)"
config *.numWalkers 2
config *.numNodes 50
config *.enableDuplication false
config *.rc 0.33

vector 0 RGG.node[15] visitedPerTimestep ETV
vector 1 RGG.node[25] visitedPerTimestep ETV
vector 2 RGG.node[33] visitedPerTimestep ETV
vector 3 RGG.node[23] visitedPerTimestep ETV
vector 4 RGG.node[19] visitedPerTimestep ETV
vector 5 RGG.node[14] visitedPerTimestep ETV
vector 6 RGG.node[29] visitedPerTimestep ETV
vector 7 RGG.node[35] visitedPerTimestep ETV
vector 8 RGG.node[46] visitedPerTimestep ETV
vector 9 RGG.node[16] visitedPerTimestep ETV
vector 10 RGG.node[10] visitedPerTimestep ETV
vector 11 RGG.node[24] visitedPerTimestep ETV
vector 12 RGG.node[44] visitedPerTimestep ETV
vector 13 RGG.node[8] visitedPerTimestep ETV
vector 14 RGG.node[17] visitedPerTimestep ETV
vector 15 RGG.node[41] visitedPerTimestep ETV
vector 16 RGG.node[47] visitedPerTimestep ETV
vector 17 RGG.node[38] visitedPerTimestep ETV
vector 18 RGG.node[11] visitedPerTimestep ETV
vector 19 RGG.node[36] visitedPerTimestep ETV
vector 20 RGG.node[21] visitedPerTimestep ETV
vector 21 RGG.node[6] visitedPerTimestep ETV
vector 22 RGG.node[0] visitedPerTimestep ETV
vector 23 RGG.node[2] visitedPerTimestep ETV
vector 24 RGG.node[37] visitedPerTimestep ETV
vector 25 RGG.node[27] visitedPerTimestep ETV
vector 26 RGG.node[48] visitedPerTimestep ETV
vector 27 RGG.node[1] visitedPerTimestep ETV
vector 28 RGG.node[5] visitedPerTimestep ETV
vector 29 RGG.node[26] visitedPerTimestep ETV
vector 30 RGG.node[28] visitedPerTimestep ETV
vector 31 RGG.node[3] visitedPerTimestep ETV
vector 32 RGG.node[7] visitedPerTimestep ETV
vector 33 RGG.node[34] visitedPerTimestep ETV
vector 34 RGG.node[42] visitedPerTimestep ETV
vector 35 RGG.node[22] visitedPerTimestep ETV
vector 36 RGG.node[32] visitedPerTimestep ETV
vector 37 RGG.node[12] visitedPerTimestep ETV
vector 38 RGG.node[18] visitedPerTimestep ETV
vector 39 RGG.node[9] visitedPerTimestep ETV
vector 40 RGG.node[31] visitedPerTimestep ETV
vector 41 RGG.node[13] visitedPerTimestep ETV
0	2	0	2
0	14	0	9
0	130	0	39
0	202	0	48
0	338	0	48
0	362	0	48
1	4	0	4
1	12	0	8
1	138	0	39
1	208	0	48
1	216	0	48
1	360	0	48
1	376	0	48
2	6	0	5
2	30	0	17
2	136	0	39
2	162	0	41
2	184	0	43
2	198	0	48
2	310	0	48
2	322	0	48
2	326	0	48
2	334	0	48
2	370	0	48
3	8	0	7
3	16	0	10
3	20	0	13
3	132	0	39
3	180	0	43
4	10	0	8
4	92	0	32
4	152	0	40
4	176	0	41
4	186	0	44
4	220	0	48
4	226	0	48
5	18	0	12
5	200	0	48
5	218	0	48
5	342	0	48
5	384	0	48
6	22	0	14
6	140	0	39
6	154	0	40
6	190	0	45
6	296	0	48
6	300	0	48
6	324	0	48
6	346	0	48
7	24	0	16
7	58	0	23
7	62	0	23
7	90	0	31
7	128	0	39
7	160	0	41
7	182	0	43
7	204	0	48
7	214	0	48
7	308	0	48
8	26	0	16
8	68	0	24
8	302	0	48
8	312	0	48
8	336	0	48
8	356	0	48
8	372	0	48
9	28	0	17
9	32	0	17
9	36	0	18
9	70	0	24
9	178	0	42
9	228	0	48
9	314	0	48
9	358	0	48
9	386	0	48
10	34	0	18
10	42	0	20
10	72	0	24
10	256	0	48
11	38	0	19
11	116	0	38
11	294	0	48
11	394	0	50
12	40	0	20
12	146	0	40
12	242	0	48
12	248	0	48
12	272	0	48
12	284	0	48
12	292	0	48
13	44	0	21
13	50	0	23
13	98	0	33
14	46	0	22
14	54	0	23
14	110	0	37
14	122	0	39
14	254	0	48
14	288	0	48
15	48	0	23
15	120	0	39
15	232	0	48
15	388	0	48
16	52	0	23
16	114	0	38
16	134	0	39
17	56	0	23
17	96	0	32
17	174	0	41
17	258	0	48
17	330	0	48
17	392	0	49
18	60	0	23
18	64	0	23
18	156	0	40
18	222	0	48
18	344	0	48
18	350	0	48
18	368	0	48
19	66	0	24
19	224	0	48
19	306	0	48
19	348	0	48
19	354	0	48
19	378	0	48
19	382	0	48
20	74	0	25
20	80	0	28
21	76	0	26
22	78	0	28
23	82	0	30
24	84	0	31
24	166	0	41
24	262	0	48
24	282	0	48
25	86	0	31
25	188	0	45
25	246	0	48
25	270	0	48
25	298	0	48
26	88	0	31
26	94	0	32
26	118	0	39
26	148	0	40
26	164	0	41
26	168	0	41
26	172	0	41
26	230	0	48
26	234	0	48
26	320	0	48
26	328	0	48
26	332	0	48
27	100	0	34
27	104	0	34
27	126	0	39
27	142	0	39
27	150	0	40
27	268	0	48
28	102	0	34
28	124	0	39
28	252	0	48
28	280	0	48
28	290	0	48
29	106	0	36
29	274	0	48
30	108	0	37
30	112	0	38
30	236	0	48
30	276	0	48
31	144	0	40
31	244	0	48
31	250	0	48
32	158	0	41
32	206	0	48
32	212	0	48
32	366	0	48
32	374	0	48
33	170	0	41
33	390	0	48
34	192	0	46
34	380	0	48
35	194	0	47
35	352	0	48
36	196	0	48
36	304	0	48
37	210	0	48
37	340	0	48
37	364	0	48
38	238	0	48
38	260	0	48
38	266	0	48
38	278	0	48
39	240	0	48
39	264	0	48
39	286	0	48
40	316	0	48
41	318	0	48

