version 3
run General-66-20250808-22:38:10-6483
attr configname General
attr datetime 20250808-22:38:10
attr datetimef 20250808-223810
attr experiment General
attr inifile omnetpp.ini
attr iterationvars ""
attr iterationvarsd ""
attr iterationvarsf ""
attr measurement ""
attr network RGG
attr processid 6483
attr repetition 66
attr replication #66
attr resultdir results
attr runnumber 66
attr seedset 66
config network RGG
config seed-set 66
config num-rngs 1
config sim-time-limit 10s
config repeat 500
config **.node[*].xCor "uniform(0.0, 1.0, 0)"
config **.node[*].yCor "uniform(0.0, 1.0, 0)"
config *.numWalkers 1
config *.numNodes 50
config *.enableDuplication true
config *.rc 0.4

vector 0 RGG.node[33] visitedPerTimestep ETV
vector 1 RGG.node[45] visitedPerTimestep ETV
vector 2 RGG.node[43] visitedPerTimestep ETV
vector 3 RGG.node[35] visitedPerTimestep ETV
vector 4 RGG.node[27] visitedPerTimestep ETV
vector 5 RGG.node[10] visitedPerTimestep ETV
vector 6 RGG.node[40] visitedPerTimestep ETV
vector 7 RGG.node[29] visitedPerTimestep ETV
vector 8 RGG.node[0] visitedPerTimestep ETV
vector 9 RGG.node[21] visitedPerTimestep ETV
vector 10 RGG.node[39] visitedPerTimestep ETV
vector 11 RGG.node[32] visitedPerTimestep ETV
vector 12 RGG.node[1] visitedPerTimestep ETV
vector 13 RGG.node[41] visitedPerTimestep ETV
vector 14 RGG.node[36] visitedPerTimestep ETV
vector 15 RGG.node[49] visitedPerTimestep ETV
vector 16 RGG.node[9] visitedPerTimestep ETV
vector 17 RGG.node[18] visitedPerTimestep ETV
vector 18 RGG.node[25] visitedPerTimestep ETV
vector 19 RGG.node[28] visitedPerTimestep ETV
vector 20 RGG.node[2] visitedPerTimestep ETV
vector 21 RGG.node[20] visitedPerTimestep ETV
vector 22 RGG.node[7] visitedPerTimestep ETV
vector 23 RGG.node[8] visitedPerTimestep ETV
vector 24 RGG.node[14] visitedPerTimestep ETV
vector 25 RGG.node[3] visitedPerTimestep ETV
vector 26 RGG.node[34] visitedPerTimestep ETV
vector 27 RGG.node[16] visitedPerTimestep ETV
vector 28 RGG.node[24] visitedPerTimestep ETV
vector 29 RGG.node[22] visitedPerTimestep ETV
vector 30 RGG.node[46] visitedPerTimestep ETV
vector 31 RGG.node[37] visitedPerTimestep ETV
vector 32 RGG.node[38] visitedPerTimestep ETV
vector 33 RGG.node[12] visitedPerTimestep ETV
vector 34 RGG.node[13] visitedPerTimestep ETV
vector 35 RGG.node[19] visitedPerTimestep ETV
vector 36 RGG.node[31] visitedPerTimestep ETV
vector 37 RGG.node[48] visitedPerTimestep ETV
vector 38 RGG.node[47] visitedPerTimestep ETV
vector 39 RGG.node[44] visitedPerTimestep ETV
vector 40 RGG.node[23] visitedPerTimestep ETV
vector 41 RGG.node[4] visitedPerTimestep ETV
vector 42 RGG.node[26] visitedPerTimestep ETV
vector 43 RGG.node[5] visitedPerTimestep ETV
vector 44 RGG.node[17] visitedPerTimestep ETV
vector 45 RGG.node[30] visitedPerTimestep ETV
vector 46 RGG.node[11] visitedPerTimestep ETV
vector 47 RGG.node[15] visitedPerTimestep ETV
0	1	0	1
0	27	0	24
0	30	0	25
0	82	0	38
0	86	0	38
0	108	0	41
0	154	0	45
0	298	0	48
0	1022	0	49
0	1390	0	49
0	1486	0	49
0	1838	0	49
1	2	0	2
1	210	0	45
1	686	0	48
1	710	0	48
1	1342	0	49
2	3	0	3
2	54	0	33
2	132	0	42
2	218	0	45
2	518	0	48
2	766	0	48
3	4	0	4
3	45	0	29
3	47	0	29
3	114	0	41
3	136	0	43
3	242	0	48
3	510	0	48
3	534	0	48
3	702	0	48
3	2446	0	49
4	5	0	5
4	9	0	8
4	41	0	28
4	138	0	44
4	314	0	48
4	454	0	48
4	1278	0	49
4	3150	0	49
5	6	0	6
5	43	0	28
5	72	0	37
5	246	0	48
5	326	0	48
5	446	0	48
5	558	0	48
5	1246	0	49
6	7	0	7
6	14	0	12
6	116	0	41
6	310	0	48
6	338	0	48
6	958	0	49
6	1182	0	49
6	1262	0	49
6	1374	0	49
6	2670	0	49
7	8	0	8
7	318	0	48
7	462	0	48
7	662	0	48
7	1198	0	49
7	1230	0	49
7	1358	0	49
7	2894	0	49
8	10	0	9
8	118	0	41
8	142	0	45
8	190	0	45
8	638	0	48
8	974	0	49
8	1214	0	49
8	2606	0	49
9	11	0	10
9	334	0	48
9	478	0	48
9	574	0	48
9	1150	0	49
10	12	0	11
10	238	0	48
10	266	0	48
10	614	0	48
10	1134	0	49
10	2510	0	49
10	2702	0	49
10	2958	0	49
11	13	0	12
11	50	0	31
11	330	0	48
11	526	0	48
11	550	0	48
11	2414	0	49
11	2990	0	49
12	15	0	13
12	42	0	28
12	1166	0	49
13	16	0	14
13	46	0	29
13	74	0	37
13	94	0	39
13	124	0	41
13	186	0	45
13	382	0	48
13	734	0	48
13	926	0	49
13	1118	0	49
13	1774	0	49
13	2126	0	49
13	3054	0	49
14	17	0	15
14	346	0	48
14	486	0	48
14	542	0	48
14	622	0	48
14	646	0	48
14	2350	0	49
14	2830	0	49
15	18	0	16
15	112	0	41
15	122	0	41
15	134	0	42
15	226	0	46
15	726	0	48
16	19	0	17
16	278	0	48
16	294	0	48
16	742	0	48
16	830	0	48
17	20	0	18
18	21	0	19
18	58	0	34
18	130	0	42
18	590	0	48
18	2798	0	49
19	22	0	20
19	64	0	37
19	206	0	45
19	250	0	48
19	342	0	48
19	502	0	48
19	598	0	48
19	2478	0	49
19	3022	0	49
20	23	0	21
20	40	0	28
20	144	0	45
20	194	0	45
20	254	0	48
20	430	0	48
20	654	0	48
20	1038	0	49
20	1310	0	49
20	1502	0	49
20	2862	0	49
21	24	0	22
21	80	0	38
21	302	0	48
21	678	0	48
21	990	0	49
21	1422	0	49
21	1454	0	49
21	1806	0	49
22	25	0	23
22	182	0	45
22	1998	0	49
22	2190	0	49
23	26	0	24
23	29	0	25
23	36	0	27
23	38	0	27
23	398	0	48
24	28	0	25
24	32	0	26
24	37	0	27
24	84	0	38
24	104	0	41
24	198	0	45
24	422	0	48
24	878	0	49
24	1006	0	49
24	1086	0	49
24	1406	0	49
24	1470	0	49
24	1934	0	49
25	31	0	26
25	33	0	26
25	35	0	27
25	146	0	45
25	1710	0	49
25	2318	0	49
26	34	0	27
26	98	0	40
26	148	0	45
26	166	0	45
26	174	0	45
26	862	0	49
26	1614	0	49
26	3406	0	49
27	39	0	28
27	414	0	48
27	1054	0	49
27	2030	0	49
27	2094	0	49
27	2638	0	49
28	44	0	29
28	68	0	37
28	120	0	41
28	214	0	45
28	234	0	47
28	350	0	48
28	438	0	48
28	630	0	48
28	782	0	48
28	2382	0	49
29	48	0	30
29	56	0	33
29	128	0	42
29	270	0	48
29	2542	0	49
30	49	0	31
30	66	0	37
30	374	0	48
30	582	0	48
30	2574	0	49
31	52	0	32
31	494	0	48
31	606	0	48
31	694	0	48
31	798	0	48
32	60	0	35
32	126	0	41
32	230	0	46
32	718	0	48
32	1550	0	49
32	2734	0	49
33	62	0	36
33	70	0	37
33	76	0	37
33	90	0	39
33	202	0	45
33	390	0	48
33	566	0	48
33	1102	0	49
33	1534	0	49
34	78	0	38
34	258	0	48
34	670	0	48
34	1294	0	49
35	88	0	39
35	92	0	39
35	106	0	41
35	894	0	49
35	1870	0	49
35	2222	0	49
36	96	0	40
36	100	0	40
36	158	0	45
36	406	0	48
36	910	0	49
36	1070	0	49
36	1646	0	49
36	1742	0	49
36	2062	0	49
36	2158	0	49
36	2254	0	49
36	3214	0	49
37	102	0	41
37	170	0	45
37	1582	0	49
38	110	0	41
38	140	0	44
38	470	0	48
38	942	0	49
38	1518	0	49
38	2926	0	49
38	3086	0	49
39	150	0	45
39	162	0	45
39	2286	0	49
39	3470	0	50
40	178	0	45
40	1902	0	49
40	1966	0	49
41	222	0	46
41	286	0	48
41	366	0	48
42	262	0	48
42	322	0	48
42	1326	0	49
42	3118	0	49
43	274	0	48
43	358	0	48
43	814	0	48
44	282	0	48
44	290	0	48
44	2766	0	49
45	306	0	48
45	1438	0	49
46	750	0	48
46	846	0	49
46	3278	0	49
47	1678	0	49
47	3342	0	49

