version 3
run General-50-20250808-22:38:10-6453
attr configname General
attr datetime 20250808-22:38:10
attr datetimef 20250808-223810
attr experiment General
attr inifile omnetpp.ini
attr iterationvars ""
attr iterationvarsd ""
attr iterationvarsf ""
attr measurement ""
attr network RGG
attr processid 6453
attr repetition 50
attr replication #50
attr resultdir results
attr runnumber 50
attr seedset 50
config network RGG
config seed-set 50
config num-rngs 1
config sim-time-limit 10s
config repeat 500
config **.node[*].xCor "uniform(0.0, 1.0, 0)"
config **.node[*].yCor "uniform(0.0, 1.0, 0)"
config *.numWalkers 1
config *.numNodes 50
config *.enableDuplication true
config *.rc 0.4

vector 0 RGG.node[48] visitedPerTimestep ETV
vector 1 RGG.node[15] visitedPerTimestep ETV
vector 2 RGG.node[21] visitedPerTimestep ETV
vector 3 RGG.node[36] visitedPerTimestep ETV
vector 4 RGG.node[24] visitedPerTimestep ETV
vector 5 RGG.node[8] visitedPerTimestep ETV
vector 6 RGG.node[30] visitedPerTimestep ETV
vector 7 RGG.node[14] visitedPerTimestep ETV
vector 8 RGG.node[7] visitedPerTimestep ETV
vector 9 RGG.node[17] visitedPerTimestep ETV
vector 10 RGG.node[22] visitedPerTimestep ETV
vector 11 RGG.node[34] visitedPerTimestep ETV
vector 12 RGG.node[32] visitedPerTimestep ETV
vector 13 RGG.node[10] visitedPerTimestep ETV
vector 14 RGG.node[37] visitedPerTimestep ETV
vector 15 RGG.node[33] visitedPerTimestep ETV
vector 16 RGG.node[43] visitedPerTimestep ETV
vector 17 RGG.node[18] visitedPerTimestep ETV
vector 18 RGG.node[23] visitedPerTimestep ETV
vector 19 RGG.node[3] visitedPerTimestep ETV
vector 20 RGG.node[4] visitedPerTimestep ETV
vector 21 RGG.node[9] visitedPerTimestep ETV
vector 22 RGG.node[16] visitedPerTimestep ETV
vector 23 RGG.node[0] visitedPerTimestep ETV
vector 24 RGG.node[46] visitedPerTimestep ETV
vector 25 RGG.node[1] visitedPerTimestep ETV
vector 26 RGG.node[47] visitedPerTimestep ETV
vector 27 RGG.node[19] visitedPerTimestep ETV
vector 28 RGG.node[39] visitedPerTimestep ETV
vector 29 RGG.node[28] visitedPerTimestep ETV
vector 30 RGG.node[26] visitedPerTimestep ETV
vector 31 RGG.node[44] visitedPerTimestep ETV
vector 32 RGG.node[11] visitedPerTimestep ETV
vector 33 RGG.node[13] visitedPerTimestep ETV
0	1	0	1
0	49	0	26
1	2	0	2
1	17	0	13
1	22	0	15
1	28	0	18
1	35	0	20
1	162	0	44
1	218	0	46
1	262	0	49
2	3	0	3
2	15	0	12
2	38	0	22
2	74	0	37
2	88	0	43
3	4	0	4
3	120	0	44
3	170	0	44
3	182	0	45
3	234	0	49
3	254	0	49
4	5	0	5
4	11	0	10
4	18	0	13
4	27	0	18
4	32	0	19
4	48	0	26
4	114	0	44
4	128	0	44
4	198	0	45
4	290	0	49
5	6	0	6
5	21	0	15
5	132	0	44
5	178	0	44
5	242	0	49
5	302	0	49
6	7	0	7
7	8	0	8
7	14	0	12
7	31	0	19
7	110	0	44
7	274	0	49
8	9	0	9
8	126	0	44
8	154	0	44
8	266	0	49
8	334	0	49
9	10	0	10
9	194	0	45
9	202	0	46
9	270	0	49
9	282	0	49
10	12	0	11
10	108	0	44
10	330	0	49
11	13	0	12
11	134	0	44
11	230	0	49
11	298	0	49
12	16	0	13
12	112	0	44
12	206	0	46
12	238	0	49
12	310	0	49
12	338	0	49
13	19	0	14
13	100	0	44
13	104	0	44
13	222	0	47
13	322	0	49
14	20	0	15
14	47	0	26
14	50	0	26
14	80	0	40
14	86	0	42
14	210	0	46
15	23	0	16
15	26	0	18
15	78	0	39
15	124	0	44
15	158	0	44
15	214	0	46
15	250	0	49
16	24	0	17
16	41	0	23
16	52	0	26
16	258	0	49
17	25	0	18
17	30	0	19
17	34	0	20
17	226	0	48
18	29	0	19
18	44	0	25
18	82	0	40
18	106	0	44
18	116	0	44
18	136	0	44
18	150	0	44
18	246	0	49
18	278	0	49
18	286	0	49
18	326	0	49
19	33	0	20
19	46	0	26
19	72	0	36
19	314	0	49
20	36	0	21
20	39	0	22
20	70	0	35
20	140	0	44
21	37	0	22
21	56	0	27
21	68	0	35
21	138	0	44
21	146	0	44
22	40	0	23
22	64	0	33
23	42	0	24
23	76	0	38
23	118	0	44
23	122	0	44
23	130	0	44
23	148	0	44
23	166	0	44
24	43	0	25
24	186	0	45
25	45	0	26
25	144	0	44
26	54	0	27
26	98	0	44
26	102	0	44
26	318	0	49
27	58	0	29
28	60	0	31
29	62	0	33
29	92	0	43
29	96	0	44
30	66	0	35
30	90	0	43
30	142	0	44
31	84	0	41
31	174	0	44
31	190	0	45
32	94	0	44
33	294	0	49
33	306	0	49
33	342	0	50

