version 3
run General-276-20250729-21:37:02-52059
attr configname General
attr datetime 20250729-21:37:02
attr datetimef 20250729-213702
attr experiment General
attr inifile omnetpp.ini
attr iterationvars ""
attr iterationvarsd ""
attr iterationvarsf ""
attr measurement ""
attr network RGG
attr processid 52059
attr repetition 276
attr replication #276
attr resultdir results
attr runnumber 276
attr seedset 276
config network RGG
config seed-set 276
config num-rngs 1
config sim-time-limit 10s
config repeat 500
config **.node[*].xCor "uniform(0.0, 1.0, 0)"
config **.node[*].yCor "uniform(0.0, 1.0, 0)"
config *.numWalkers 2
config *.numNodes 50
config *.enableDuplication false
config *.rc 0.33

vector 0 RGG.node[38] visitedPerTimestep ETV
vector 1 RGG.node[29] visitedPerTimestep ETV
vector 2 RGG.node[17] visitedPerTimestep ETV
vector 3 RGG.node[39] visitedPerTimestep ETV
vector 4 RGG.node[3] visitedPerTimestep ETV
vector 5 RGG.node[37] visitedPerTimestep ETV
vector 6 RGG.node[22] visitedPerTimestep ETV
vector 7 RGG.node[27] visitedPerTimestep ETV
vector 8 RGG.node[7] visitedPerTimestep ETV
vector 9 RGG.node[45] visitedPerTimestep ETV
vector 10 RGG.node[6] visitedPerTimestep ETV
vector 11 RGG.node[24] visitedPerTimestep ETV
vector 12 RGG.node[14] visitedPerTimestep ETV
vector 13 RGG.node[15] visitedPerTimestep ETV
vector 14 RGG.node[41] visitedPerTimestep ETV
vector 15 RGG.node[46] visitedPerTimestep ETV
vector 16 RGG.node[20] visitedPerTimestep ETV
vector 17 RGG.node[48] visitedPerTimestep ETV
vector 18 RGG.node[16] visitedPerTimestep ETV
vector 19 RGG.node[36] visitedPerTimestep ETV
vector 20 RGG.node[4] visitedPerTimestep ETV
vector 21 RGG.node[0] visitedPerTimestep ETV
vector 22 RGG.node[35] visitedPerTimestep ETV
vector 23 RGG.node[23] visitedPerTimestep ETV
vector 24 RGG.node[9] visitedPerTimestep ETV
vector 25 RGG.node[19] visitedPerTimestep ETV
vector 26 RGG.node[42] visitedPerTimestep ETV
vector 27 RGG.node[32] visitedPerTimestep ETV
vector 28 RGG.node[34] visitedPerTimestep ETV
vector 29 RGG.node[25] visitedPerTimestep ETV
vector 30 RGG.node[2] visitedPerTimestep ETV
vector 31 RGG.node[30] visitedPerTimestep ETV
vector 32 RGG.node[1] visitedPerTimestep ETV
vector 33 RGG.node[5] visitedPerTimestep ETV
vector 34 RGG.node[12] visitedPerTimestep ETV
vector 35 RGG.node[21] visitedPerTimestep ETV
vector 36 RGG.node[44] visitedPerTimestep ETV
vector 37 RGG.node[13] visitedPerTimestep ETV
vector 38 RGG.node[26] visitedPerTimestep ETV
vector 39 RGG.node[49] visitedPerTimestep ETV
vector 40 RGG.node[40] visitedPerTimestep ETV
vector 41 RGG.node[28] visitedPerTimestep ETV
vector 42 RGG.node[43] visitedPerTimestep ETV
vector 43 RGG.node[33] visitedPerTimestep ETV
vector 44 RGG.node[18] visitedPerTimestep ETV
vector 45 RGG.node[31] visitedPerTimestep ETV
vector 46 RGG.node[10] visitedPerTimestep ETV
vector 47 RGG.node[8] visitedPerTimestep ETV
vector 48 RGG.node[11] visitedPerTimestep ETV
vector 49 RGG.node[47] visitedPerTimestep ETV
0	2	0	2
0	130	0	40
0	322	0	48
0	410	0	48
0	526	0	48
1	4	0	4
1	12	0	11
1	324	0	48
1	336	0	48
1	352	0	48
1	358	0	48
1	362	0	48
1	366	0	48
1	404	0	48
1	412	0	48
1	420	0	48
1	440	0	48
1	444	0	48
2	6	0	6
2	334	0	48
2	342	0	48
2	364	0	48
3	8	0	8
3	210	0	46
3	344	0	48
3	348	0	48
4	10	0	10
4	326	0	48
4	330	0	48
4	340	0	48
4	350	0	48
5	14	0	13
5	108	0	40
5	216	0	47
5	230	0	47
5	354	0	48
5	360	0	48
5	416	0	48
6	16	0	15
6	20	0	18
6	42	0	27
6	88	0	39
6	192	0	45
6	292	0	48
6	298	0	48
6	380	0	48
6	446	0	48
6	516	0	48
6	520	0	48
7	18	0	17
7	90	0	39
7	102	0	40
7	142	0	40
7	274	0	48
7	280	0	48
7	384	0	48
7	424	0	48
7	504	0	48
8	22	0	18
8	132	0	40
8	140	0	40
8	270	0	48
8	276	0	48
8	302	0	48
8	454	0	48
8	490	0	48
8	524	0	48
9	24	0	19
9	48	0	29
9	70	0	35
9	148	0	41
9	258	0	48
9	304	0	48
9	308	0	48
9	312	0	48
9	466	0	48
9	480	0	48
9	484	0	48
9	488	0	48
10	26	0	20
10	54	0	31
10	150	0	41
10	240	0	47
10	244	0	47
10	474	0	48
11	28	0	21
11	46	0	28
11	126	0	40
11	152	0	41
11	246	0	47
11	250	0	47
11	464	0	48
12	30	0	23
12	82	0	37
12	96	0	39
12	278	0	48
12	426	0	48
12	456	0	48
12	508	0	48
13	32	0	24
13	36	0	26
13	78	0	36
13	98	0	39
13	222	0	47
14	34	0	25
14	86	0	39
14	110	0	40
14	118	0	40
14	136	0	40
14	300	0	48
14	436	0	48
14	492	0	48
14	510	0	48
15	38	0	26
15	106	0	40
15	112	0	40
15	432	0	48
15	498	0	48
15	512	0	48
16	40	0	27
16	290	0	48
16	396	0	48
16	402	0	48
17	44	0	27
17	94	0	39
17	100	0	39
17	122	0	40
17	382	0	48
17	392	0	48
18	50	0	30
18	156	0	41
18	196	0	45
18	472	0	48
19	52	0	31
19	68	0	35
19	154	0	41
19	162	0	41
19	256	0	48
19	478	0	48
20	56	0	32
20	66	0	34
20	160	0	41
20	164	0	41
20	314	0	48
20	476	0	48
20	532	0	49
21	58	0	33
21	64	0	34
21	166	0	41
21	316	0	48
21	534	0	49
22	60	0	33
22	182	0	44
22	200	0	45
23	62	0	34
23	176	0	43
23	198	0	45
23	470	0	48
23	482	0	48
23	530	0	49
24	72	0	35
24	104	0	40
24	114	0	40
24	124	0	40
24	138	0	40
24	144	0	41
24	236	0	47
24	262	0	48
24	266	0	48
25	74	0	36
25	224	0	47
25	452	0	48
25	462	0	48
26	76	0	36
26	84	0	38
26	92	0	39
26	220	0	47
26	428	0	48
26	450	0	48
26	458	0	48
26	506	0	48
27	80	0	37
27	116	0	40
27	390	0	48
27	460	0	48
28	120	0	40
28	146	0	41
28	190	0	45
28	194	0	45
28	272	0	48
28	282	0	48
28	486	0	48
28	500	0	48
28	518	0	48
29	128	0	40
29	226	0	47
29	284	0	48
29	288	0	48
29	386	0	48
29	394	0	48
30	134	0	40
30	232	0	47
30	378	0	48
30	422	0	48
30	514	0	48
31	158	0	41
31	306	0	48
32	168	0	42
32	172	0	43
33	170	0	43
33	174	0	43
33	180	0	44
34	178	0	44
35	184	0	44
35	260	0	48
35	320	0	48
35	468	0	48
36	186	0	45
36	202	0	45
36	206	0	45
36	286	0	48
36	296	0	48
36	400	0	48
36	408	0	48
37	188	0	45
37	228	0	47
37	268	0	48
37	294	0	48
37	372	0	48
37	406	0	48
38	204	0	45
38	332	0	48
38	356	0	48
38	368	0	48
38	414	0	48
38	496	0	48
39	208	0	46
39	346	0	48
40	212	0	47
40	328	0	48
40	338	0	48
40	442	0	48
41	214	0	47
41	376	0	48
41	438	0	48
42	218	0	47
42	234	0	47
42	388	0	48
42	398	0	48
42	430	0	48
42	448	0	48
42	522	0	48
43	238	0	47
43	242	0	47
43	252	0	47
44	248	0	47
44	264	0	48
44	502	0	48
45	254	0	48
45	310	0	48
46	318	0	48
47	370	0	48
47	374	0	48
47	418	0	48
47	434	0	48
47	494	0	48
48	528	0	49
49	536	0	50

