version 3
run General-275-20250808-22:38:13-6835
attr configname General
attr datetime 20250808-22:38:13
attr datetimef 20250808-223813
attr experiment General
attr inifile omnetpp.ini
attr iterationvars ""
attr iterationvarsd ""
attr iterationvarsf ""
attr measurement ""
attr network RGG
attr processid 6835
attr repetition 275
attr replication #275
attr resultdir results
attr runnumber 275
attr seedset 275
config network RGG
config seed-set 275
config num-rngs 1
config sim-time-limit 10s
config repeat 500
config **.node[*].xCor "uniform(0.0, 1.0, 0)"
config **.node[*].yCor "uniform(0.0, 1.0, 0)"
config *.numWalkers 1
config *.numNodes 50
config *.enableDuplication true
config *.rc 0.4

vector 0 RGG.node[27] visitedPerTimestep ETV
vector 1 RGG.node[33] visitedPerTimestep ETV
vector 2 RGG.node[34] visitedPerTimestep ETV
vector 3 RGG.node[41] visitedPerTimestep ETV
vector 4 RGG.node[36] visitedPerTimestep ETV
vector 5 RGG.node[1] visitedPerTimestep ETV
vector 6 RGG.node[18] visitedPerTimestep ETV
vector 7 RGG.node[2] visitedPerTimestep ETV
vector 8 RGG.node[47] visitedPerTimestep ETV
vector 9 RGG.node[43] visitedPerTimestep ETV
vector 10 RGG.node[21] visitedPerTimestep ETV
vector 11 RGG.node[46] visitedPerTimestep ETV
vector 12 RGG.node[48] visitedPerTimestep ETV
vector 13 RGG.node[10] visitedPerTimestep ETV
vector 14 RGG.node[24] visitedPerTimestep ETV
vector 15 RGG.node[15] visitedPerTimestep ETV
vector 16 RGG.node[11] visitedPerTimestep ETV
vector 17 RGG.node[26] visitedPerTimestep ETV
vector 18 RGG.node[13] visitedPerTimestep ETV
vector 19 RGG.node[42] visitedPerTimestep ETV
vector 20 RGG.node[19] visitedPerTimestep ETV
vector 21 RGG.node[37] visitedPerTimestep ETV
vector 22 RGG.node[17] visitedPerTimestep ETV
vector 23 RGG.node[8] visitedPerTimestep ETV
vector 24 RGG.node[12] visitedPerTimestep ETV
vector 25 RGG.node[30] visitedPerTimestep ETV
vector 26 RGG.node[39] visitedPerTimestep ETV
vector 27 RGG.node[35] visitedPerTimestep ETV
vector 28 RGG.node[0] visitedPerTimestep ETV
vector 29 RGG.node[49] visitedPerTimestep ETV
vector 30 RGG.node[3] visitedPerTimestep ETV
vector 31 RGG.node[7] visitedPerTimestep ETV
vector 32 RGG.node[5] visitedPerTimestep ETV
vector 33 RGG.node[32] visitedPerTimestep ETV
vector 34 RGG.node[31] visitedPerTimestep ETV
vector 35 RGG.node[14] visitedPerTimestep ETV
vector 36 RGG.node[40] visitedPerTimestep ETV
vector 37 RGG.node[16] visitedPerTimestep ETV
vector 38 RGG.node[23] visitedPerTimestep ETV
vector 39 RGG.node[20] visitedPerTimestep ETV
0	1	0	1
0	47	0	32
0	50	0	33
0	142	0	46
1	2	0	2
1	48	0	32
1	54	0	33
1	78	0	42
1	134	0	46
1	170	0	48
1	190	0	49
2	3	0	3
2	16	0	13
3	4	0	4
3	17	0	13
3	76	0	42
3	108	0	45
3	132	0	46
3	146	0	46
3	186	0	48
3	198	0	50
4	5	0	5
4	12	0	11
4	15	0	13
4	80	0	42
4	110	0	45
4	130	0	46
4	166	0	47
5	6	0	6
5	38	0	29
5	74	0	41
6	7	0	7
6	86	0	42
6	138	0	46
7	8	0	8
7	43	0	31
7	84	0	42
7	120	0	45
8	9	0	9
8	88	0	43
9	10	0	10
9	90	0	43
10	11	0	11
10	36	0	28
10	52	0	33
10	58	0	36
10	66	0	38
10	118	0	45
10	178	0	48
11	13	0	12
11	182	0	48
12	14	0	13
12	106	0	45
12	128	0	46
12	144	0	46
13	18	0	14
13	194	0	49
14	19	0	15
15	20	0	16
15	45	0	32
15	114	0	45
15	140	0	46
16	21	0	17
16	46	0	32
16	124	0	45
16	154	0	46
17	22	0	18
17	28	0	23
18	23	0	19
18	98	0	44
18	102	0	44
19	24	0	20
19	94	0	43
20	25	0	21
20	96	0	44
21	26	0	22
22	27	0	23
23	29	0	24
24	30	0	25
24	158	0	46
25	31	0	26
25	35	0	28
25	60	0	36
26	32	0	27
26	34	0	28
27	33	0	28
27	41	0	31
27	136	0	46
27	148	0	46
27	162	0	46
28	37	0	29
28	112	0	45
28	126	0	45
29	39	0	30
29	62	0	36
30	40	0	31
30	42	0	31
30	64	0	37
30	150	0	46
31	44	0	32
31	70	0	40
31	82	0	42
32	49	0	33
33	56	0	35
33	174	0	48
34	68	0	39
34	122	0	45
35	72	0	41
36	92	0	43
37	100	0	44
38	104	0	45
39	116	0	45

