version 3
run General-467-20250808-22:38:15-7158
attr configname General
attr datetime 20250808-22:38:15
attr datetimef 20250808-223815
attr experiment General
attr inifile omnetpp.ini
attr iterationvars ""
attr iterationvarsd ""
attr iterationvarsf ""
attr measurement ""
attr network RGG
attr processid 7158
attr repetition 467
attr replication #467
attr resultdir results
attr runnumber 467
attr seedset 467
config network RGG
config seed-set 467
config num-rngs 1
config sim-time-limit 10s
config repeat 500
config **.node[*].xCor "uniform(0.0, 1.0, 0)"
config **.node[*].yCor "uniform(0.0, 1.0, 0)"
config *.numWalkers 1
config *.numNodes 50
config *.enableDuplication true
config *.rc 0.4

vector 0 RGG.node[13] visitedPerTimestep ETV
vector 1 RGG.node[12] visitedPerTimestep ETV
vector 2 RGG.node[28] visitedPerTimestep ETV
vector 3 RGG.node[7] visitedPerTimestep ETV
vector 4 RGG.node[48] visitedPerTimestep ETV
vector 5 RGG.node[20] visitedPerTimestep ETV
vector 6 RGG.node[21] visitedPerTimestep ETV
vector 7 RGG.node[15] visitedPerTimestep ETV
vector 8 RGG.node[23] visitedPerTimestep ETV
vector 9 RGG.node[14] visitedPerTimestep ETV
vector 10 RGG.node[24] visitedPerTimestep ETV
vector 11 RGG.node[16] visitedPerTimestep ETV
vector 12 RGG.node[8] visitedPerTimestep ETV
vector 13 RGG.node[9] visitedPerTimestep ETV
vector 14 RGG.node[10] visitedPerTimestep ETV
vector 15 RGG.node[26] visitedPerTimestep ETV
vector 16 RGG.node[18] visitedPerTimestep ETV
vector 17 RGG.node[46] visitedPerTimestep ETV
vector 18 RGG.node[43] visitedPerTimestep ETV
vector 19 RGG.node[42] visitedPerTimestep ETV
vector 20 RGG.node[27] visitedPerTimestep ETV
vector 21 RGG.node[36] visitedPerTimestep ETV
vector 22 RGG.node[34] visitedPerTimestep ETV
vector 23 RGG.node[0] visitedPerTimestep ETV
vector 24 RGG.node[2] visitedPerTimestep ETV
vector 25 RGG.node[6] visitedPerTimestep ETV
vector 26 RGG.node[4] visitedPerTimestep ETV
vector 27 RGG.node[11] visitedPerTimestep ETV
vector 28 RGG.node[39] visitedPerTimestep ETV
vector 29 RGG.node[49] visitedPerTimestep ETV
vector 30 RGG.node[33] visitedPerTimestep ETV
vector 31 RGG.node[44] visitedPerTimestep ETV
vector 32 RGG.node[35] visitedPerTimestep ETV
vector 33 RGG.node[32] visitedPerTimestep ETV
vector 34 RGG.node[31] visitedPerTimestep ETV
vector 35 RGG.node[37] visitedPerTimestep ETV
vector 36 RGG.node[17] visitedPerTimestep ETV
vector 37 RGG.node[3] visitedPerTimestep ETV
vector 38 RGG.node[29] visitedPerTimestep ETV
vector 39 RGG.node[40] visitedPerTimestep ETV
vector 40 RGG.node[5] visitedPerTimestep ETV
vector 41 RGG.node[30] visitedPerTimestep ETV
vector 42 RGG.node[38] visitedPerTimestep ETV
0	1	0	1
0	72	0	37
1	2	0	2
1	7	0	6
1	34	0	24
1	96	0	43
1	114	0	46
1	118	0	46
1	140	0	46
2	3	0	3
2	12	0	9
2	82	0	39
2	112	0	46
2	136	0	46
3	4	0	4
3	33	0	24
3	98	0	44
3	144	0	46
4	5	0	5
4	18	0	12
4	35	0	24
4	50	0	28
4	120	0	46
4	142	0	46
4	146	0	46
4	226	0	49
5	6	0	6
5	52	0	29
6	8	0	7
7	9	0	8
7	11	0	9
7	46	0	28
7	102	0	45
7	170	0	48
7	230	0	49
8	10	0	9
8	13	0	9
8	15	0	10
8	45	0	28
8	158	0	47
9	14	0	10
9	68	0	36
9	126	0	46
9	202	0	48
10	16	0	11
10	30	0	22
10	122	0	46
10	210	0	48
11	17	0	12
11	76	0	37
12	19	0	13
12	36	0	24
12	47	0	28
12	49	0	28
12	234	0	50
13	20	0	14
13	40	0	27
14	21	0	15
14	27	0	20
15	22	0	16
15	42	0	27
15	48	0	28
15	88	0	40
15	182	0	48
16	23	0	17
16	190	0	48
17	24	0	18
17	154	0	47
17	194	0	48
18	25	0	19
19	26	0	20
19	186	0	48
20	28	0	21
21	29	0	22
22	31	0	23
23	32	0	24
23	74	0	37
23	134	0	46
24	37	0	25
25	38	0	26
25	43	0	27
26	39	0	27
26	41	0	27
26	84	0	39
26	178	0	48
27	44	0	28
27	86	0	40
27	90	0	41
27	162	0	47
28	54	0	29
29	56	0	30
29	66	0	36
29	130	0	46
30	58	0	32
30	106	0	46
30	138	0	46
30	174	0	48
31	60	0	33
31	214	0	48
32	62	0	34
32	124	0	46
32	128	0	46
32	198	0	48
33	64	0	35
34	70	0	37
35	78	0	38
35	218	0	48
36	80	0	38
36	132	0	46
36	148	0	46
37	92	0	42
37	166	0	47
38	94	0	42
38	110	0	46
39	100	0	44
39	116	0	46
40	104	0	46
40	108	0	46
41	150	0	46
42	206	0	48
42	222	0	49

