version 3
run General-401-20250729-21:37:06-52266
attr configname General
attr datetime 20250729-21:37:06
attr datetimef 20250729-213706
attr experiment General
attr inifile omnetpp.ini
attr iterationvars ""
attr iterationvarsd ""
attr iterationvarsf ""
attr measurement ""
attr network RGG
attr processid 52266
attr repetition 401
attr replication #401
attr resultdir results
attr runnumber 401
attr seedset 401
config network RGG
config seed-set 401
config num-rngs 1
config sim-time-limit 10s
config repeat 500
config **.node[*].xCor "uniform(0.0, 1.0, 0)"
config **.node[*].yCor "uniform(0.0, 1.0, 0)"
config *.numWalkers 2
config *.numNodes 50
config *.enableDuplication false
config *.rc 0.33

vector 0 RGG.node[49] visitedPerTimestep ETV
vector 1 RGG.node[4] visitedPerTimestep ETV
vector 2 RGG.node[31] visitedPerTimestep ETV
vector 3 RGG.node[6] visitedPerTimestep ETV
vector 4 RGG.node[37] visitedPerTimestep ETV
vector 5 RGG.node[15] visitedPerTimestep ETV
vector 6 RGG.node[23] visitedPerTimestep ETV
vector 7 RGG.node[32] visitedPerTimestep ETV
vector 8 RGG.node[18] visitedPerTimestep ETV
vector 9 RGG.node[14] visitedPerTimestep ETV
vector 10 RGG.node[41] visitedPerTimestep ETV
vector 11 RGG.node[38] visitedPerTimestep ETV
vector 12 RGG.node[17] visitedPerTimestep ETV
vector 13 RGG.node[8] visitedPerTimestep ETV
vector 14 RGG.node[21] visitedPerTimestep ETV
vector 15 RGG.node[16] visitedPerTimestep ETV
vector 16 RGG.node[39] visitedPerTimestep ETV
vector 17 RGG.node[30] visitedPerTimestep ETV
vector 18 RGG.node[47] visitedPerTimestep ETV
vector 19 RGG.node[22] visitedPerTimestep ETV
vector 20 RGG.node[29] visitedPerTimestep ETV
vector 21 RGG.node[10] visitedPerTimestep ETV
vector 22 RGG.node[48] visitedPerTimestep ETV
vector 23 RGG.node[20] visitedPerTimestep ETV
vector 24 RGG.node[19] visitedPerTimestep ETV
vector 25 RGG.node[35] visitedPerTimestep ETV
vector 26 RGG.node[40] visitedPerTimestep ETV
vector 27 RGG.node[36] visitedPerTimestep ETV
vector 28 RGG.node[46] visitedPerTimestep ETV
vector 29 RGG.node[44] visitedPerTimestep ETV
vector 30 RGG.node[24] visitedPerTimestep ETV
vector 31 RGG.node[2] visitedPerTimestep ETV
vector 32 RGG.node[0] visitedPerTimestep ETV
vector 33 RGG.node[42] visitedPerTimestep ETV
vector 34 RGG.node[33] visitedPerTimestep ETV
vector 35 RGG.node[1] visitedPerTimestep ETV
vector 36 RGG.node[13] visitedPerTimestep ETV
vector 37 RGG.node[26] visitedPerTimestep ETV
vector 38 RGG.node[27] visitedPerTimestep ETV
vector 39 RGG.node[3] visitedPerTimestep ETV
vector 40 RGG.node[25] visitedPerTimestep ETV
vector 41 RGG.node[5] visitedPerTimestep ETV
vector 42 RGG.node[9] visitedPerTimestep ETV
vector 43 RGG.node[28] visitedPerTimestep ETV
vector 44 RGG.node[45] visitedPerTimestep ETV
vector 45 RGG.node[12] visitedPerTimestep ETV
vector 46 RGG.node[7] visitedPerTimestep ETV
0	2	0	2
1	4	0	4
1	332	0	48
1	344	0	49
2	6	0	5
2	32	0	22
2	314	0	47
3	8	0	6
3	126	0	41
3	274	0	47
4	10	0	8
4	128	0	41
4	326	0	48
5	12	0	10
5	18	0	15
5	272	0	47
6	14	0	12
6	20	0	16
6	334	0	48
6	338	0	49
7	16	0	14
7	140	0	43
8	22	0	17
8	134	0	42
8	138	0	43
8	142	0	43
8	328	0	48
8	340	0	49
9	24	0	17
9	28	0	19
9	278	0	47
9	342	0	49
9	346	0	49
10	26	0	19
10	46	0	30
10	302	0	47
11	30	0	21
11	34	0	23
11	40	0	25
11	280	0	47
11	312	0	47
12	36	0	24
12	284	0	47
12	288	0	47
12	292	0	47
12	310	0	47
13	38	0	25
13	50	0	30
13	60	0	34
13	294	0	47
13	308	0	47
14	42	0	27
14	296	0	47
14	306	0	47
15	44	0	29
15	290	0	47
15	298	0	47
16	48	0	30
16	286	0	47
16	300	0	47
16	304	0	47
17	52	0	30
17	56	0	31
17	62	0	34
18	54	0	30
18	102	0	39
18	150	0	45
18	220	0	46
18	228	0	46
18	232	0	46
19	58	0	33
20	64	0	34
20	74	0	36
20	82	0	36
20	230	0	46
20	244	0	47
21	66	0	35
21	72	0	36
21	108	0	40
21	252	0	47
22	68	0	36
22	78	0	36
22	90	0	37
22	94	0	37
22	154	0	45
22	160	0	45
22	176	0	46
22	210	0	46
22	254	0	47
23	70	0	36
23	162	0	45
23	166	0	45
23	182	0	46
23	188	0	46
23	268	0	47
24	76	0	36
24	88	0	37
24	92	0	37
24	96	0	37
24	114	0	40
24	218	0	46
24	234	0	47
24	238	0	47
24	258	0	47
25	80	0	36
25	86	0	37
25	106	0	40
25	148	0	45
25	204	0	46
25	208	0	46
25	246	0	47
26	84	0	37
26	202	0	46
26	214	0	46
26	222	0	46
26	226	0	46
26	248	0	47
26	260	0	47
27	98	0	38
27	194	0	46
28	100	0	39
28	116	0	40
28	120	0	40
28	152	0	45
28	172	0	45
29	104	0	40
29	112	0	40
29	190	0	46
29	198	0	46
29	240	0	47
29	250	0	47
29	256	0	47
30	110	0	40
30	118	0	40
30	122	0	40
31	124	0	41
32	130	0	42
32	324	0	48
33	132	0	42
33	276	0	47
33	316	0	47
33	330	0	48
34	136	0	43
34	320	0	47
35	144	0	44
35	164	0	45
35	178	0	46
35	184	0	46
35	264	0	47
35	270	0	47
36	146	0	45
36	158	0	45
36	186	0	46
37	156	0	45
37	170	0	45
37	212	0	46
37	242	0	47
38	168	0	45
38	216	0	46
38	224	0	46
39	174	0	45
39	192	0	46
39	196	0	46
39	236	0	47
39	266	0	47
40	180	0	46
41	200	0	46
41	206	0	46
41	262	0	47
42	282	0	47
43	318	0	47
44	322	0	48
45	336	0	49
46	348	0	50

