version 3
run General-105-20250729-21:36:59-51766
attr configname General
attr datetime 20250729-21:36:59
attr datetimef 20250729-213659
attr experiment General
attr inifile omnetpp.ini
attr iterationvars ""
attr iterationvarsd ""
attr iterationvarsf ""
attr measurement ""
attr network RGG
attr processid 51766
attr repetition 105
attr replication #105
attr resultdir results
attr runnumber 105
attr seedset 105
config network RGG
config seed-set 105
config num-rngs 1
config sim-time-limit 10s
config repeat 500
config **.node[*].xCor "uniform(0.0, 1.0, 0)"
config **.node[*].yCor "uniform(0.0, 1.0, 0)"
config *.numWalkers 2
config *.numNodes 50
config *.enableDuplication false
config *.rc 0.33

vector 0 RGG.node[5] visitedPerTimestep ETV
vector 1 RGG.node[13] visitedPerTimestep ETV
vector 2 RGG.node[49] visitedPerTimestep ETV
vector 3 RGG.node[44] visitedPerTimestep ETV
vector 4 RGG.node[0] visitedPerTimestep ETV
vector 5 RGG.node[23] visitedPerTimestep ETV
vector 6 RGG.node[7] visitedPerTimestep ETV
vector 7 RGG.node[21] visitedPerTimestep ETV
vector 8 RGG.node[27] visitedPerTimestep ETV
vector 9 RGG.node[6] visitedPerTimestep ETV
vector 10 RGG.node[33] visitedPerTimestep ETV
vector 11 RGG.node[31] visitedPerTimestep ETV
vector 12 RGG.node[26] visitedPerTimestep ETV
vector 13 RGG.node[48] visitedPerTimestep ETV
vector 14 RGG.node[42] visitedPerTimestep ETV
vector 15 RGG.node[17] visitedPerTimestep ETV
vector 16 RGG.node[16] visitedPerTimestep ETV
vector 17 RGG.node[41] visitedPerTimestep ETV
vector 18 RGG.node[34] visitedPerTimestep ETV
vector 19 RGG.node[46] visitedPerTimestep ETV
vector 20 RGG.node[35] visitedPerTimestep ETV
vector 21 RGG.node[14] visitedPerTimestep ETV
vector 22 RGG.node[40] visitedPerTimestep ETV
vector 23 RGG.node[4] visitedPerTimestep ETV
vector 24 RGG.node[19] visitedPerTimestep ETV
vector 25 RGG.node[43] visitedPerTimestep ETV
vector 26 RGG.node[3] visitedPerTimestep ETV
vector 27 RGG.node[1] visitedPerTimestep ETV
vector 28 RGG.node[38] visitedPerTimestep ETV
vector 29 RGG.node[18] visitedPerTimestep ETV
vector 30 RGG.node[32] visitedPerTimestep ETV
vector 31 RGG.node[20] visitedPerTimestep ETV
vector 32 RGG.node[36] visitedPerTimestep ETV
vector 33 RGG.node[45] visitedPerTimestep ETV
vector 34 RGG.node[8] visitedPerTimestep ETV
vector 35 RGG.node[2] visitedPerTimestep ETV
vector 36 RGG.node[30] visitedPerTimestep ETV
vector 37 RGG.node[29] visitedPerTimestep ETV
vector 38 RGG.node[10] visitedPerTimestep ETV
vector 39 RGG.node[12] visitedPerTimestep ETV
vector 40 RGG.node[15] visitedPerTimestep ETV
vector 41 RGG.node[9] visitedPerTimestep ETV
vector 42 RGG.node[25] visitedPerTimestep ETV
vector 43 RGG.node[37] visitedPerTimestep ETV
vector 44 RGG.node[22] visitedPerTimestep ETV
vector 45 RGG.node[11] visitedPerTimestep ETV
vector 46 RGG.node[47] visitedPerTimestep ETV
0	2	0	2
1	4	0	4
1	18	0	13
1	24	0	17
2	6	0	6
3	8	0	8
4	10	0	9
5	12	0	11
5	16	0	12
5	106	0	43
6	14	0	12
6	104	0	43
7	20	0	14
7	26	0	18
7	102	0	43
7	108	0	44
8	22	0	16
9	28	0	20
9	70	0	35
9	238	0	49
9	246	0	49
9	280	0	49
10	30	0	21
10	186	0	49
10	234	0	49
11	32	0	22
11	254	0	49
11	292	0	49
12	34	0	23
12	62	0	34
12	156	0	46
12	244	0	49
12	282	0	49
13	36	0	25
13	82	0	39
13	114	0	45
13	152	0	46
13	180	0	49
13	216	0	49
14	38	0	27
14	42	0	29
14	86	0	39
14	182	0	49
14	214	0	49
14	218	0	49
14	304	0	49
15	40	0	29
15	112	0	44
15	126	0	46
15	154	0	46
15	184	0	49
16	44	0	30
16	50	0	32
16	84	0	39
16	128	0	46
16	146	0	46
16	226	0	49
16	310	0	49
16	314	0	50
17	46	0	31
18	48	0	32
18	94	0	41
18	132	0	46
18	136	0	46
18	174	0	49
19	52	0	33
19	190	0	49
20	54	0	33
20	204	0	49
20	232	0	49
20	300	0	49
21	56	0	33
21	194	0	49
21	262	0	49
21	294	0	49
22	58	0	33
22	76	0	37
22	192	0	49
22	196	0	49
22	302	0	49
23	60	0	34
23	158	0	46
23	166	0	48
23	230	0	49
23	276	0	49
24	64	0	35
24	160	0	46
24	242	0	49
24	284	0	49
24	290	0	49
25	66	0	35
26	68	0	35
26	240	0	49
26	268	0	49
26	288	0	49
27	72	0	37
27	164	0	47
27	248	0	49
27	258	0	49
28	74	0	37
28	206	0	49
28	236	0	49
28	256	0	49
28	278	0	49
29	78	0	38
29	122	0	45
29	168	0	48
29	210	0	49
29	222	0	49
29	274	0	49
30	80	0	39
30	92	0	41
30	140	0	46
30	150	0	46
30	170	0	48
30	178	0	49
30	220	0	49
30	224	0	49
31	88	0	40
31	144	0	46
31	148	0	46
31	176	0	49
31	306	0	49
31	312	0	49
32	90	0	41
32	96	0	41
32	130	0	46
33	98	0	42
33	134	0	46
33	138	0	46
33	308	0	49
34	100	0	43
34	110	0	44
34	212	0	49
35	116	0	45
35	120	0	45
35	188	0	49
36	118	0	45
36	200	0	49
36	298	0	49
37	124	0	46
37	228	0	49
38	142	0	46
39	162	0	46
39	252	0	49
39	260	0	49
39	286	0	49
40	172	0	49
41	198	0	49
42	202	0	49
43	208	0	49
43	272	0	49
43	296	0	49
44	250	0	49
45	264	0	49
45	270	0	49
46	266	0	49

