version 3
run General-480-20250729-21:37:08-52403
attr configname General
attr datetime 20250729-21:37:08
attr datetimef 20250729-213708
attr experiment General
attr inifile omnetpp.ini
attr iterationvars ""
attr iterationvarsd ""
attr iterationvarsf ""
attr measurement ""
attr network RGG
attr processid 52403
attr repetition 480
attr replication #480
attr resultdir results
attr runnumber 480
attr seedset 480
config network RGG
config seed-set 480
config num-rngs 1
config sim-time-limit 10s
config repeat 500
config **.node[*].xCor "uniform(0.0, 1.0, 0)"
config **.node[*].yCor "uniform(0.0, 1.0, 0)"
config *.numWalkers 2
config *.numNodes 50
config *.enableDuplication false
config *.rc 0.33

vector 0 RGG.node[3] visitedPerTimestep ETV
vector 1 RGG.node[47] visitedPerTimestep ETV
vector 2 RGG.node[0] visitedPerTimestep ETV
vector 3 RGG.node[15] visitedPerTimestep ETV
vector 4 RGG.node[34] visitedPerTimestep ETV
vector 5 RGG.node[38] visitedPerTimestep ETV
vector 6 RGG.node[20] visitedPerTimestep ETV
vector 7 RGG.node[10] visitedPerTimestep ETV
vector 8 RGG.node[18] visitedPerTimestep ETV
vector 9 RGG.node[21] visitedPerTimestep ETV
vector 10 RGG.node[30] visitedPerTimestep ETV
vector 11 RGG.node[48] visitedPerTimestep ETV
vector 12 RGG.node[7] visitedPerTimestep ETV
vector 13 RGG.node[22] visitedPerTimestep ETV
vector 14 RGG.node[9] visitedPerTimestep ETV
vector 15 RGG.node[4] visitedPerTimestep ETV
vector 16 RGG.node[14] visitedPerTimestep ETV
vector 17 RGG.node[41] visitedPerTimestep ETV
vector 18 RGG.node[24] visitedPerTimestep ETV
vector 19 RGG.node[25] visitedPerTimestep ETV
vector 20 RGG.node[6] visitedPerTimestep ETV
vector 21 RGG.node[5] visitedPerTimestep ETV
vector 22 RGG.node[40] visitedPerTimestep ETV
vector 23 RGG.node[29] visitedPerTimestep ETV
vector 24 RGG.node[2] visitedPerTimestep ETV
vector 25 RGG.node[27] visitedPerTimestep ETV
vector 26 RGG.node[13] visitedPerTimestep ETV
vector 27 RGG.node[39] visitedPerTimestep ETV
vector 28 RGG.node[28] visitedPerTimestep ETV
vector 29 RGG.node[12] visitedPerTimestep ETV
vector 30 RGG.node[19] visitedPerTimestep ETV
vector 31 RGG.node[32] visitedPerTimestep ETV
vector 32 RGG.node[44] visitedPerTimestep ETV
vector 33 RGG.node[8] visitedPerTimestep ETV
vector 34 RGG.node[11] visitedPerTimestep ETV
vector 35 RGG.node[42] visitedPerTimestep ETV
vector 36 RGG.node[31] visitedPerTimestep ETV
vector 37 RGG.node[33] visitedPerTimestep ETV
vector 38 RGG.node[16] visitedPerTimestep ETV
vector 39 RGG.node[23] visitedPerTimestep ETV
vector 40 RGG.node[46] visitedPerTimestep ETV
vector 41 RGG.node[45] visitedPerTimestep ETV
vector 42 RGG.node[17] visitedPerTimestep ETV
vector 43 RGG.node[26] visitedPerTimestep ETV
vector 44 RGG.node[43] visitedPerTimestep ETV
vector 45 RGG.node[1] visitedPerTimestep ETV
vector 46 RGG.node[37] visitedPerTimestep ETV
0	2	0	2
0	28	0	16
1	4	0	4
1	42	0	22
1	204	0	48
1	252	0	49
2	6	0	5
2	34	0	18
2	202	0	48
2	208	0	48
2	212	0	49
2	264	0	49
2	272	0	49
3	8	0	5
3	20	0	12
3	44	0	22
3	198	0	48
3	266	0	49
4	10	0	6
4	322	0	49
4	334	0	49
5	12	0	8
5	84	0	35
5	88	0	36
5	256	0	49
6	14	0	9
6	18	0	11
6	210	0	48
7	16	0	11
7	94	0	38
7	328	0	49
7	332	0	49
8	22	0	13
8	216	0	49
8	268	0	49
8	324	0	49
9	24	0	14
9	104	0	38
9	218	0	49
9	226	0	49
10	26	0	16
10	38	0	20
10	124	0	42
10	222	0	49
10	312	0	49
11	30	0	17
11	86	0	36
11	90	0	37
11	206	0	48
11	214	0	49
12	32	0	17
12	36	0	19
12	40	0	21
12	254	0	49
12	258	0	49
12	270	0	49
13	46	0	24
13	50	0	27
13	262	0	49
13	280	0	49
14	48	0	26
14	92	0	37
14	260	0	49
14	316	0	49
14	320	0	49
15	52	0	29
15	238	0	49
15	282	0	49
16	54	0	31
16	154	0	44
16	164	0	44
17	56	0	31
17	64	0	32
17	166	0	44
17	176	0	46
18	58	0	31
18	72	0	33
18	76	0	33
18	142	0	44
18	180	0	46
18	246	0	49
19	60	0	31
19	78	0	33
19	162	0	44
19	178	0	46
19	190	0	46
19	250	0	49
19	278	0	49
20	62	0	31
20	148	0	44
20	156	0	44
21	66	0	32
21	146	0	44
21	168	0	44
21	172	0	46
21	192	0	46
22	68	0	32
22	158	0	44
22	276	0	49
23	70	0	32
23	150	0	44
23	170	0	45
24	74	0	33
24	240	0	49
25	80	0	33
25	160	0	44
25	194	0	47
25	274	0	49
26	82	0	34
26	196	0	48
26	200	0	48
27	96	0	38
27	100	0	38
27	330	0	49
27	336	0	49
28	98	0	38
28	338	0	49
29	102	0	38
29	318	0	49
30	106	0	39
30	118	0	42
31	108	0	40
32	110	0	41
32	120	0	42
32	130	0	42
32	230	0	49
32	234	0	49
32	286	0	49
32	302	0	49
33	112	0	41
33	220	0	49
33	310	0	49
34	114	0	41
34	126	0	42
34	296	0	49
35	116	0	41
35	290	0	49
35	294	0	49
36	122	0	42
36	128	0	42
36	228	0	49
37	132	0	43
37	232	0	49
37	236	0	49
37	300	0	49
38	134	0	43
38	184	0	46
39	136	0	43
39	174	0	46
39	182	0	46
39	186	0	46
39	244	0	49
40	138	0	44
40	144	0	44
40	152	0	44
41	140	0	44
41	188	0	46
41	242	0	49
41	248	0	49
42	224	0	49
42	314	0	49
42	326	0	49
43	284	0	49
43	298	0	49
43	308	0	49
44	288	0	49
44	306	0	49
45	292	0	49
45	304	0	49
46	340	0	50

