file 4479 1754681893                                            
version 3
run General-339-20250808-22:38:13-6945
attr configname General
attr datetime 20250808-22:38:13
attr datetimef 20250808-223813
attr experiment General
attr inifile omnetpp.ini
attr iterationvars ""
attr iterationvarsd ""
attr iterationvarsf ""
attr measurement ""
attr network RGG
attr processid 6945
attr repetition 339
attr replication #339
attr resultdir results
attr runnumber 339
attr seedset 339
config network RGG
config seed-set 339
config num-rngs 1
config sim-time-limit 10s
config repeat 500
config **.node[*].xCor "uniform(0.0, 1.0, 0)"
config **.node[*].yCor "uniform(0.0, 1.0, 0)"
config *.numWalkers 1
config *.numNodes 50
config *.enableDuplication true
config *.rc 0.4

vector 0 RGG.node[4] visitedPerTimestep ETV
vector 1 RGG.node[14] visitedPerTimestep ETV
vector 2 RGG.node[13] visitedPerTimestep ETV
vector 3 RGG.node[29] visitedPerTimestep ETV
vector 4 RGG.node[7] visitedPerTimestep ETV
vector 5 RGG.node[8] visitedPerTimestep ETV
vector 6 RGG.node[27] visitedPerTimestep ETV
vector 7 RGG.node[17] visitedPerTimestep ETV
vector 8 RGG.node[30] visitedPerTimestep ETV
vector 9 RGG.node[40] visitedPerTimestep ETV
vector 10 RGG.node[42] visitedPerTimestep ETV
vector 11 RGG.node[47] visitedPerTimestep ETV
vector 12 RGG.node[9] visitedPerTimestep ETV
vector 13 RGG.node[19] visitedPerTimestep ETV
vector 14 RGG.node[3] visitedPerTimestep ETV
vector 15 RGG.node[31] visitedPerTimestep ETV
vector 16 RGG.node[49] visitedPerTimestep ETV
vector 17 RGG.node[2] visitedPerTimestep ETV
vector 18 RGG.node[16] visitedPerTimestep ETV
vector 19 RGG.node[36] visitedPerTimestep ETV
vector 20 RGG.node[25] visitedPerTimestep ETV
vector 21 RGG.node[20] visitedPerTimestep ETV
vector 22 RGG.node[18] visitedPerTimestep ETV
vector 23 RGG.node[22] visitedPerTimestep ETV
vector 24 RGG.node[44] visitedPerTimestep ETV
vector 25 RGG.node[0] visitedPerTimestep ETV
vector 26 RGG.node[33] visitedPerTimestep ETV
vector 27 RGG.node[21] visitedPerTimestep ETV
vector 28 RGG.node[41] visitedPerTimestep ETV
vector 29 RGG.node[10] visitedPerTimestep ETV
vector 30 RGG.node[34] visitedPerTimestep ETV
vector 31 RGG.node[1] visitedPerTimestep ETV
vector 32 RGG.node[38] visitedPerTimestep ETV
vector 33 RGG.node[28] visitedPerTimestep ETV
vector 34 RGG.node[24] visitedPerTimestep ETV
vector 35 RGG.node[26] visitedPerTimestep ETV
vector 36 RGG.node[37] visitedPerTimestep ETV
vector 37 RGG.node[45] visitedPerTimestep ETV
vector 38 RGG.node[12] visitedPerTimestep ETV
vector 39 RGG.node[39] visitedPerTimestep ETV
vector 40 RGG.node[23] visitedPerTimestep ETV
vector 41 RGG.node[35] visitedPerTimestep ETV
vector 42 RGG.node[48] visitedPerTimestep ETV
vector 43 RGG.node[5] visitedPerTimestep ETV
vector 44 RGG.node[6] visitedPerTimestep ETV
vector 45 RGG.node[11] visitedPerTimestep ETV
vector 46 RGG.node[43] visitedPerTimestep ETV
0	2838 19 1 194 0 0 2 1 48 49 2305
1	2857 19 2 158 0 0 2 2 48 50 2308
2	2876 29 3 154 0 0 3 3 48 78 3042
3	2905 18 4 37 0 0 2 4 27 31 745
4	2923 28 5 206 0 0 3 5 48 62 2410
5	2951 40 6 210 0 0 4 6 48 126 5220
6	2991 18 7 34 0 0 2 7 26 33 725
7	3009 17 8 10 0 0 2 8 9 17 145
8	3026 49 9 186 0 0 5 9 48 141 5175
9	3075 52 12 330 0 0 5 10 49 181 7561
10	3127 69 13 266 0 0 6 11 49 212 9208
11	3196 45 14 246 0 0 4 12 49 137 5531
12	3241 34 16 318 0 0 3 13 49 105 4419
13	3275 35 17 314 0 0 3 14 49 112 4998
14	3310 35 18 182 0 0 3 15 48 111 4833
15	3345 34 19 138 0 0 3 16 48 101 3929
16	3379 34 20 108 0 0 3 17 46 109 4521
17	3413 23 21 124 0 0 2 18 48 66 2628
18	3436 34 23 140 0 0 3 19 48 113 4781
19	3470 68 24 334 0 0 6 20 49 237 9913
20	3538 22 25 62 0 0 2 21 40 61 2041
21	3560 23 27 218 0 0 2 22 49 71 2885
22	3583 33 28 35 0 0 3 23 26 73 1781
23	3616 23 29 202 0 0 2 24 48 72 2880
24	3639 11 32 32 0 0 1 25 25 25 625
25	3650 11 33 33 0 0 1 26 26 26 676
26	3661 23 36 162 0 0 2 27 48 75 3033
27	3684 23 39 222 0 0 2 28 49 77 3185
28	3707 58 40 132 0 0 5 29 48 203 8589
29	3765 47 41 302 0 0 4 30 49 174 7818
30	3812 35 42 310 0 0 3 31 49 129 5763
31	3847 35 44 250 0 0 3 32 49 129 5729
32	3882 35 46 306 0 0 3 33 49 128 5606
33	3917 69 47 326 0 0 6 34 49 250 10674
34	3986 47 50 230 0 0 4 35 49 178 8046
35	4033 23 52 136 0 0 2 36 48 84 3600
36	4056 22 60 86 0 0 2 40 45 85 3625
37	4078 69 68 278 0 0 6 40 49 272 12406
38	4147 47 70 338 0 0 4 41 50 186 8698
39	4194 35 78 270 0 0 3 44 49 139 6453
40	4229 59 82 290 0 0 5 44 49 236 11158
41	4288 23 84 322 0 0 2 45 49 94 4426
42	4311 59 94 274 0 0 5 46 49 238 11338
43	4370 24 122 242 0 0 2 48 49 97 4705
44	4394 36 144 282 0 0 3 48 49 145 7009
45	4430 24 170 178 0 0 2 48 48 96 4608
46	4454 24 198 214 0 0 2 48 48 96 4608

