file 3942 1754681892                                            
version 3
run General-241-20250808-22:38:12-6776
attr configname General
attr datetime 20250808-22:38:12
attr datetimef 20250808-223812
attr experiment General
attr inifile omnetpp.ini
attr iterationvars ""
attr iterationvarsd ""
attr iterationvarsf ""
attr measurement ""
attr network RGG
attr processid 6776
attr repetition 241
attr replication #241
attr resultdir results
attr runnumber 241
attr seedset 241
config network RGG
config seed-set 241
config num-rngs 1
config sim-time-limit 10s
config repeat 500
config **.node[*].xCor "uniform(0.0, 1.0, 0)"
config **.node[*].yCor "uniform(0.0, 1.0, 0)"
config *.numWalkers 1
config *.numNodes 50
config *.enableDuplication true
config *.rc 0.4

vector 0 RGG.node[9] visitedPerTimestep ETV
vector 1 RGG.node[35] visitedPerTimestep ETV
vector 2 RGG.node[33] visitedPerTimestep ETV
vector 3 RGG.node[44] visitedPerTimestep ETV
vector 4 RGG.node[1] visitedPerTimestep ETV
vector 5 RGG.node[15] visitedPerTimestep ETV
vector 6 RGG.node[7] visitedPerTimestep ETV
vector 7 RGG.node[25] visitedPerTimestep ETV
vector 8 RGG.node[10] visitedPerTimestep ETV
vector 9 RGG.node[45] visitedPerTimestep ETV
vector 10 RGG.node[8] visitedPerTimestep ETV
vector 11 RGG.node[36] visitedPerTimestep ETV
vector 12 RGG.node[42] visitedPerTimestep ETV
vector 13 RGG.node[18] visitedPerTimestep ETV
vector 14 RGG.node[24] visitedPerTimestep ETV
vector 15 RGG.node[5] visitedPerTimestep ETV
vector 16 RGG.node[14] visitedPerTimestep ETV
vector 17 RGG.node[46] visitedPerTimestep ETV
vector 18 RGG.node[32] visitedPerTimestep ETV
vector 19 RGG.node[4] visitedPerTimestep ETV
vector 20 RGG.node[0] visitedPerTimestep ETV
vector 21 RGG.node[11] visitedPerTimestep ETV
vector 22 RGG.node[17] visitedPerTimestep ETV
vector 23 RGG.node[30] visitedPerTimestep ETV
vector 24 RGG.node[27] visitedPerTimestep ETV
vector 25 RGG.node[16] visitedPerTimestep ETV
vector 26 RGG.node[19] visitedPerTimestep ETV
vector 27 RGG.node[23] visitedPerTimestep ETV
vector 28 RGG.node[31] visitedPerTimestep ETV
vector 29 RGG.node[28] visitedPerTimestep ETV
vector 30 RGG.node[6] visitedPerTimestep ETV
vector 31 RGG.node[40] visitedPerTimestep ETV
vector 32 RGG.node[20] visitedPerTimestep ETV
vector 33 RGG.node[41] visitedPerTimestep ETV
vector 34 RGG.node[43] visitedPerTimestep ETV
vector 35 RGG.node[12] visitedPerTimestep ETV
vector 36 RGG.node[47] visitedPerTimestep ETV
vector 37 RGG.node[3] visitedPerTimestep ETV
vector 38 RGG.node[48] visitedPerTimestep ETV
vector 39 RGG.node[22] visitedPerTimestep ETV
vector 40 RGG.node[26] visitedPerTimestep ETV
vector 41 RGG.node[39] visitedPerTimestep ETV
vector 42 RGG.node[34] visitedPerTimestep ETV
0	2655 34 1 16 0 0 4 1 12 19 165
1	2689 39 2 166 0 0 4 2 48 100 3950
2	2728 38 4 84 0 0 4 3 36 67 1697
3	2766 28 5 24 0 0 3 4 14 31 381
4	2794 28 7 43 0 0 3 5 25 44 846
5	2822 28 8 32 0 0 3 6 17 37 521
6	2850 29 9 144 0 0 3 7 46 78 2790
7	2879 30 10 142 0 0 3 8 46 79 2805
8	2909 40 11 148 0 0 4 9 47 95 3111
9	2949 51 12 170 0 0 5 10 48 125 4317
10	3000 45 13 154 0 0 4 11 47 108 3822
11	3045 33 15 92 0 0 3 12 39 87 2961
12	3078 23 17 162 0 0 2 13 48 61 2473
13	3101 22 19 94 0 0 2 14 39 53 1717
14	3123 33 29 45 0 0 3 15 25 65 1475
15	3156 33 30 48 0 0 3 16 25 66 1506
16	3189 34 31 140 0 0 3 17 46 88 3030
17	3223 23 33 146 0 0 2 18 47 65 2533
18	3246 57 34 190 0 0 5 19 48 167 6247
19	3303 33 35 68 0 0 3 20 29 74 1866
20	3336 34 36 194 0 0 3 21 48 92 3274
21	3370 57 37 210 0 0 5 22 49 175 6685
22	3427 69 38 202 0 0 6 23 49 221 8787
23	3496 35 40 218 0 0 3 24 49 119 5093
24	3531 70 41 222 0 0 6 25 50 244 10542
25	3601 33 56 72 0 0 3 27 29 85 2411
26	3634 23 76 130 0 0 2 32 46 78 3140
27	3657 35 78 206 0 0 3 33 49 128 5606
28	3692 23 80 178 0 0 2 34 48 82 3460
29	3715 35 82 174 0 0 3 36 48 126 5364
30	3750 11 90 90 0 0 1 38 38 38 1444
31	3761 12 100 100 0 0 1 40 40 40 1600
32	3773 12 102 102 0 0 1 41 41 41 1681
33	3785 24 104 116 0 0 2 41 46 87 3797
34	3809 12 106 106 0 0 1 41 41 41 1681
35	3821 12 110 110 0 0 1 43 43 43 1849
36	3833 12 112 112 0 0 1 44 44 44 1936
37	3845 12 114 114 0 0 1 46 46 46 2116
38	3857 36 118 198 0 0 3 46 49 141 6633
39	3893 12 150 150 0 0 1 47 47 47 2209
40	3905 12 158 158 0 0 1 48 48 48 2304
41	3917 12 182 182 0 0 1 48 48 48 2304
42	3929 12 186 186 0 0 1 48 48 48 2304

