file 5478 1753814224                                            
version 3
run General-344-20250729-21:37:04-52170
attr configname General
attr datetime 20250729-21:37:04
attr datetimef 20250729-213704
attr experiment General
attr inifile omnetpp.ini
attr iterationvars ""
attr iterationvarsd ""
attr iterationvarsf ""
attr measurement ""
attr network RGG
attr processid 52170
attr repetition 344
attr replication #344
attr resultdir results
attr runnumber 344
attr seedset 344
config network RGG
config seed-set 344
config num-rngs 1
config sim-time-limit 10s
config repeat 500
config **.node[*].xCor "uniform(0.0, 1.0, 0)"
config **.node[*].yCor "uniform(0.0, 1.0, 0)"
config *.numWalkers 2
config *.numNodes 50
config *.enableDuplication false
config *.rc 0.33

vector 0 RGG.node[5] visitedPerTimestep ETV
vector 1 RGG.node[26] visitedPerTimestep ETV
vector 2 RGG.node[29] visitedPerTimestep ETV
vector 3 RGG.node[15] visitedPerTimestep ETV
vector 4 RGG.node[4] visitedPerTimestep ETV
vector 5 RGG.node[22] visitedPerTimestep ETV
vector 6 RGG.node[24] visitedPerTimestep ETV
vector 7 RGG.node[32] visitedPerTimestep ETV
vector 8 RGG.node[11] visitedPerTimestep ETV
vector 9 RGG.node[27] visitedPerTimestep ETV
vector 10 RGG.node[7] visitedPerTimestep ETV
vector 11 RGG.node[43] visitedPerTimestep ETV
vector 12 RGG.node[47] visitedPerTimestep ETV
vector 13 RGG.node[17] visitedPerTimestep ETV
vector 14 RGG.node[14] visitedPerTimestep ETV
vector 15 RGG.node[34] visitedPerTimestep ETV
vector 16 RGG.node[10] visitedPerTimestep ETV
vector 17 RGG.node[25] visitedPerTimestep ETV
vector 18 RGG.node[38] visitedPerTimestep ETV
vector 19 RGG.node[1] visitedPerTimestep ETV
vector 20 RGG.node[44] visitedPerTimestep ETV
vector 21 RGG.node[36] visitedPerTimestep ETV
vector 22 RGG.node[49] visitedPerTimestep ETV
vector 23 RGG.node[46] visitedPerTimestep ETV
vector 24 RGG.node[0] visitedPerTimestep ETV
vector 25 RGG.node[45] visitedPerTimestep ETV
vector 26 RGG.node[39] visitedPerTimestep ETV
vector 27 RGG.node[42] visitedPerTimestep ETV
vector 28 RGG.node[12] visitedPerTimestep ETV
vector 29 RGG.node[13] visitedPerTimestep ETV
vector 30 RGG.node[2] visitedPerTimestep ETV
vector 31 RGG.node[41] visitedPerTimestep ETV
vector 32 RGG.node[33] visitedPerTimestep ETV
vector 33 RGG.node[21] visitedPerTimestep ETV
vector 34 RGG.node[18] visitedPerTimestep ETV
vector 35 RGG.node[8] visitedPerTimestep ETV
vector 36 RGG.node[48] visitedPerTimestep ETV
vector 37 RGG.node[40] visitedPerTimestep ETV
vector 38 RGG.node[20] visitedPerTimestep ETV
vector 39 RGG.node[37] visitedPerTimestep ETV
vector 40 RGG.node[31] visitedPerTimestep ETV
vector 41 RGG.node[6] visitedPerTimestep ETV
vector 42 RGG.node[3] visitedPerTimestep ETV
vector 43 RGG.node[9] visitedPerTimestep ETV
0	2704 74 2 466 0 0 7 2 49 296 14410
1	2778 85 4 456 0 0 8 4 49 347 16823
2	2863 30 6 448 0 0 3 4 49 102 4818
3	2893 41 8 482 0 0 4 6 50 141 6233
4	2934 20 10 256 0 0 2 7 49 56 2450
5	2954 72 12 366 0 0 7 8 49 192 6580
6	3026 51 14 334 0 0 5 10 49 137 4579
7	3077 73 18 364 0 0 7 12 49 203 6863
8	3150 64 20 360 0 0 6 13 49 191 6899
9	3214 116 22 480 0 0 11 15 49 370 13962
10	3330 70 24 470 0 0 6 17 49 223 9317
11	3400 46 30 354 0 0 4 19 49 125 4499
12	3446 70 34 356 0 0 6 21 49 221 8735
13	3516 81 46 472 0 0 7 22 49 254 10188
14	3597 57 48 342 0 0 5 23 49 166 5926
15	3654 68 54 348 0 0 6 24 49 204 7624
16	3722 114 56 340 0 0 10 25 49 331 11729
17	3836 23 58 476 0 0 2 26 49 75 3077
18	3859 11 76 76 0 0 1 28 28 28 784
19	3870 59 96 478 0 0 5 32 49 215 9523
20	3929 36 100 474 0 0 3 33 49 118 4786
21	3965 24 102 106 0 0 2 34 35 69 2381
22	3989 12 104 104 0 0 1 35 35 35 1225
23	4001 12 108 108 0 0 1 36 36 36 1296
24	4013 108 152 450 0 0 9 36 49 413 19165
25	4121 72 154 460 0 0 6 36 49 280 13204
26	4193 144 156 468 0 0 12 36 49 569 27139
27	4337 48 158 442 0 0 4 37 49 184 8572
28	4385 36 160 436 0 0 3 37 49 135 6171
29	4421 132 164 464 0 0 11 39 49 507 23521
30	4553 84 166 398 0 0 7 40 49 327 15369
31	4637 72 168 244 0 0 6 40 49 264 11696
32	4709 60 172 428 0 0 5 41 49 231 10733
33	4769 84 176 420 0 0 7 42 49 336 16170
34	4853 60 182 380 0 0 5 43 49 239 11453
35	4913 36 196 318 0 0 3 47 49 145 7011
36	4949 60 202 418 0 0 5 47 49 243 11813
37	5009 72 204 432 0 0 6 47 49 292 14214
38	5081 72 206 462 0 0 6 47 49 292 14214
39	5153 132 214 430 0 0 11 49 49 539 26411
40	5285 72 220 376 0 0 6 49 49 294 14406
41	5357 12 234 234 0 0 1 49 49 49 2401
42	5369 24 262 444 0 0 2 49 49 98 4802
43	5393 84 280 452 0 0 7 49 49 343 16807

