version 3
run General-499-20250808-22:38:15-7213
attr configname General
attr datetime 20250808-22:38:15
attr datetimef 20250808-223815
attr experiment General
attr inifile omnetpp.ini
attr iterationvars ""
attr iterationvarsd ""
attr iterationvarsf ""
attr measurement ""
attr network RGG
attr processid 7213
attr repetition 499
attr replication #499
attr resultdir results
attr runnumber 499
attr seedset 499
config network RGG
config seed-set 499
config num-rngs 1
config sim-time-limit 10s
config repeat 500
config **.node[*].xCor "uniform(0.0, 1.0, 0)"
config **.node[*].yCor "uniform(0.0, 1.0, 0)"
config *.numWalkers 1
config *.numNodes 50
config *.enableDuplication true
config *.rc 0.4

vector 0 RGG.node[24] visitedPerTimestep ETV
vector 1 RGG.node[46] visitedPerTimestep ETV
vector 2 RGG.node[17] visitedPerTimestep ETV
vector 3 RGG.node[34] visitedPerTimestep ETV
vector 4 RGG.node[43] visitedPerTimestep ETV
vector 5 RGG.node[2] visitedPerTimestep ETV
vector 6 RGG.node[7] visitedPerTimestep ETV
vector 7 RGG.node[0] visitedPerTimestep ETV
vector 8 RGG.node[14] visitedPerTimestep ETV
vector 9 RGG.node[9] visitedPerTimestep ETV
vector 10 RGG.node[47] visitedPerTimestep ETV
vector 11 RGG.node[18] visitedPerTimestep ETV
vector 12 RGG.node[10] visitedPerTimestep ETV
vector 13 RGG.node[39] visitedPerTimestep ETV
vector 14 RGG.node[37] visitedPerTimestep ETV
vector 15 RGG.node[5] visitedPerTimestep ETV
vector 16 RGG.node[36] visitedPerTimestep ETV
vector 17 RGG.node[33] visitedPerTimestep ETV
vector 18 RGG.node[30] visitedPerTimestep ETV
vector 19 RGG.node[21] visitedPerTimestep ETV
vector 20 RGG.node[15] visitedPerTimestep ETV
vector 21 RGG.node[3] visitedPerTimestep ETV
vector 22 RGG.node[49] visitedPerTimestep ETV
vector 23 RGG.node[1] visitedPerTimestep ETV
vector 24 RGG.node[44] visitedPerTimestep ETV
vector 25 RGG.node[6] visitedPerTimestep ETV
vector 26 RGG.node[11] visitedPerTimestep ETV
vector 27 RGG.node[48] visitedPerTimestep ETV
vector 28 RGG.node[22] visitedPerTimestep ETV
vector 29 RGG.node[20] visitedPerTimestep ETV
vector 30 RGG.node[25] visitedPerTimestep ETV
vector 31 RGG.node[12] visitedPerTimestep ETV
vector 32 RGG.node[29] visitedPerTimestep ETV
vector 33 RGG.node[19] visitedPerTimestep ETV
vector 34 RGG.node[26] visitedPerTimestep ETV
vector 35 RGG.node[40] visitedPerTimestep ETV
vector 36 RGG.node[13] visitedPerTimestep ETV
vector 37 RGG.node[8] visitedPerTimestep ETV
vector 38 RGG.node[23] visitedPerTimestep ETV
vector 39 RGG.node[41] visitedPerTimestep ETV
vector 40 RGG.node[4] visitedPerTimestep ETV
vector 41 RGG.node[27] visitedPerTimestep ETV
vector 42 RGG.node[32] visitedPerTimestep ETV
vector 43 RGG.node[28] visitedPerTimestep ETV
vector 44 RGG.node[16] visitedPerTimestep ETV
vector 45 RGG.node[42] visitedPerTimestep ETV
vector 46 RGG.node[31] visitedPerTimestep ETV
vector 47 RGG.node[45] visitedPerTimestep ETV
0	1	0	1
1	2	0	2
1	124	0	47
2	3	0	3
2	32	0	23
3	4	0	4
3	25	0	18
3	34	0	24
3	80	0	38
3	116	0	46
4	5	0	5
4	42	0	26
4	44	0	26
5	6	0	6
5	12	0	10
5	162	0	49
6	7	0	7
6	9	0	8
6	126	0	47
7	8	0	8
7	29	0	21
8	10	0	9
9	11	0	10
9	120	0	46
10	13	0	11
10	35	0	24
11	14	0	12
11	58	0	32
12	15	0	13
12	17	0	14
12	21	0	17
12	37	0	24
12	64	0	33
12	154	0	49
13	16	0	14
13	24	0	18
13	70	0	34
14	18	0	15
14	22	0	17
15	19	0	16
15	36	0	24
16	20	0	17
16	68	0	34
17	23	0	18
17	40	0	26
17	43	0	26
17	62	0	33
18	26	0	19
19	27	0	20
19	148	0	49
20	28	0	21
21	30	0	22
21	48	0	28
21	86	0	41
22	31	0	23
22	45	0	26
22	128	0	47
23	33	0	24
23	118	0	46
23	166	0	49
24	38	0	25
24	41	0	26
25	39	0	26
26	46	0	27
26	49	0	28
26	56	0	31
26	82	0	38
27	47	0	28
27	50	0	28
27	110	0	46
27	170	0	49
28	52	0	29
28	102	0	44
28	144	0	49
29	54	0	30
29	92	0	42
29	132	0	47
30	60	0	33
30	158	0	49
31	66	0	34
32	72	0	35
33	74	0	36
33	96	0	42
33	136	0	48
34	76	0	37
34	146	0	49
34	178	0	50
35	78	0	38
36	84	0	40
36	130	0	47
36	138	0	48
37	88	0	42
37	150	0	49
38	90	0	42
38	94	0	42
39	98	0	43
40	100	0	44
40	104	0	44
40	112	0	46
41	106	0	45
42	108	0	46
42	174	0	49
43	114	0	46
44	122	0	47
45	134	0	48
46	140	0	48
47	142	0	49

