version 3
run General-415-20250808-22:38:14-7073
attr configname General
attr datetime 20250808-22:38:14
attr datetimef 20250808-223814
attr experiment General
attr inifile omnetpp.ini
attr iterationvars ""
attr iterationvarsd ""
attr iterationvarsf ""
attr measurement ""
attr network RGG
attr processid 7073
attr repetition 415
attr replication #415
attr resultdir results
attr runnumber 415
attr seedset 415
config network RGG
config seed-set 415
config num-rngs 1
config sim-time-limit 10s
config repeat 500
config **.node[*].xCor "uniform(0.0, 1.0, 0)"
config **.node[*].yCor "uniform(0.0, 1.0, 0)"
config *.numWalkers 1
config *.numNodes 50
config *.enableDuplication true
config *.rc 0.4

vector 0 RGG.node[17] visitedPerTimestep ETV
vector 1 RGG.node[43] visitedPerTimestep ETV
vector 2 RGG.node[31] visitedPerTimestep ETV
vector 3 RGG.node[8] visitedPerTimestep ETV
vector 4 RGG.node[35] visitedPerTimestep ETV
vector 5 RGG.node[1] visitedPerTimestep ETV
vector 6 RGG.node[36] visitedPerTimestep ETV
vector 7 RGG.node[13] visitedPerTimestep ETV
vector 8 RGG.node[22] visitedPerTimestep ETV
vector 9 RGG.node[38] visitedPerTimestep ETV
vector 10 RGG.node[41] visitedPerTimestep ETV
vector 11 RGG.node[10] visitedPerTimestep ETV
vector 12 RGG.node[14] visitedPerTimestep ETV
vector 13 RGG.node[25] visitedPerTimestep ETV
vector 14 RGG.node[42] visitedPerTimestep ETV
vector 15 RGG.node[29] visitedPerTimestep ETV
vector 16 RGG.node[15] visitedPerTimestep ETV
vector 17 RGG.node[33] visitedPerTimestep ETV
vector 18 RGG.node[44] visitedPerTimestep ETV
vector 19 RGG.node[23] visitedPerTimestep ETV
vector 20 RGG.node[40] visitedPerTimestep ETV
vector 21 RGG.node[11] visitedPerTimestep ETV
vector 22 RGG.node[3] visitedPerTimestep ETV
vector 23 RGG.node[48] visitedPerTimestep ETV
vector 24 RGG.node[16] visitedPerTimestep ETV
vector 25 RGG.node[26] visitedPerTimestep ETV
vector 26 RGG.node[19] visitedPerTimestep ETV
vector 27 RGG.node[49] visitedPerTimestep ETV
vector 28 RGG.node[30] visitedPerTimestep ETV
vector 29 RGG.node[5] visitedPerTimestep ETV
vector 30 RGG.node[2] visitedPerTimestep ETV
vector 31 RGG.node[45] visitedPerTimestep ETV
vector 32 RGG.node[9] visitedPerTimestep ETV
vector 33 RGG.node[0] visitedPerTimestep ETV
vector 34 RGG.node[24] visitedPerTimestep ETV
vector 35 RGG.node[37] visitedPerTimestep ETV
vector 36 RGG.node[34] visitedPerTimestep ETV
vector 37 RGG.node[20] visitedPerTimestep ETV
vector 38 RGG.node[46] visitedPerTimestep ETV
vector 39 RGG.node[32] visitedPerTimestep ETV
vector 40 RGG.node[47] visitedPerTimestep ETV
vector 41 RGG.node[18] visitedPerTimestep ETV
vector 42 RGG.node[7] visitedPerTimestep ETV
0	1	0	1
0	5	0	4
1	2	0	2
1	110	0	42
1	230	0	49
2	3	0	3
2	58	0	31
2	68	0	38
2	74	0	38
2	78	0	38
3	4	0	4
4	6	0	5
4	76	0	38
5	7	0	6
5	39	0	26
5	120	0	42
6	8	0	7
7	9	0	8
7	49	0	29
7	106	0	41
7	112	0	42
8	10	0	9
8	114	0	42
8	206	0	48
9	11	0	10
9	16	0	13
9	27	0	19
9	122	0	42
10	12	0	11
10	14	0	12
10	17	0	13
10	23	0	18
10	38	0	26
10	44	0	29
10	56	0	31
10	92	0	39
10	102	0	39
10	226	0	49
11	13	0	12
11	25	0	18
12	15	0	13
12	24	0	18
12	46	0	29
13	18	0	14
13	37	0	26
13	94	0	39
13	98	0	39
14	19	0	15
14	146	0	43
15	20	0	16
16	21	0	17
16	150	0	44
16	158	0	47
16	182	0	47
16	214	0	48
17	22	0	18
17	64	0	36
17	178	0	47
18	26	0	19
18	45	0	29
19	28	0	20
19	43	0	29
20	29	0	21
20	124	0	42
21	30	0	22
21	34	0	25
21	90	0	39
21	126	0	42
21	144	0	43
22	31	0	23
22	84	0	38
22	88	0	39
22	138	0	42
22	166	0	47
23	32	0	24
23	35	0	25
23	50	0	29
23	80	0	38
23	132	0	42
23	218	0	48
24	33	0	25
24	52	0	30
24	130	0	42
24	154	0	45
24	162	0	47
25	36	0	26
25	100	0	39
26	40	0	27
26	48	0	29
26	96	0	39
26	118	0	42
26	222	0	48
27	41	0	28
27	54	0	31
27	210	0	48
28	42	0	29
28	47	0	29
28	108	0	42
29	60	0	33
29	70	0	38
30	62	0	35
31	66	0	38
31	82	0	38
31	128	0	42
32	72	0	38
32	174	0	47
33	86	0	39
33	170	0	47
34	104	0	41
34	116	0	42
34	202	0	48
35	134	0	42
35	142	0	43
36	136	0	42
37	140	0	43
38	148	0	44
39	186	0	47
40	190	0	47
40	198	0	48
41	194	0	48
42	234	0	50

