version 3
run General-340-20250808-22:38:13-6945
attr configname General
attr datetime 20250808-22:38:13
attr datetimef 20250808-223813
attr experiment General
attr inifile omnetpp.ini
attr iterationvars ""
attr iterationvarsd ""
attr iterationvarsf ""
attr measurement ""
attr network RGG
attr processid 6945
attr repetition 340
attr replication #340
attr resultdir results
attr runnumber 340
attr seedset 340
config network RGG
config seed-set 340
config num-rngs 1
config sim-time-limit 10s
config repeat 500
config **.node[*].xCor "uniform(0.0, 1.0, 0)"
config **.node[*].yCor "uniform(0.0, 1.0, 0)"
config *.numWalkers 1
config *.numNodes 50
config *.enableDuplication true
config *.rc 0.4

vector 0 RGG.node[16] visitedPerTimestep ETV
vector 1 RGG.node[39] visitedPerTimestep ETV
vector 2 RGG.node[49] visitedPerTimestep ETV
vector 3 RGG.node[6] visitedPerTimestep ETV
vector 4 RGG.node[45] visitedPerTimestep ETV
vector 5 RGG.node[21] visitedPerTimestep ETV
vector 6 RGG.node[43] visitedPerTimestep ETV
vector 7 RGG.node[47] visitedPerTimestep ETV
vector 8 RGG.node[26] visitedPerTimestep ETV
vector 9 RGG.node[27] visitedPerTimestep ETV
vector 10 RGG.node[13] visitedPerTimestep ETV
vector 11 RGG.node[36] visitedPerTimestep ETV
vector 12 RGG.node[29] visitedPerTimestep ETV
vector 13 RGG.node[46] visitedPerTimestep ETV
vector 14 RGG.node[37] visitedPerTimestep ETV
vector 15 RGG.node[3] visitedPerTimestep ETV
vector 16 RGG.node[11] visitedPerTimestep ETV
vector 17 RGG.node[24] visitedPerTimestep ETV
vector 18 RGG.node[18] visitedPerTimestep ETV
vector 19 RGG.node[1] visitedPerTimestep ETV
vector 20 RGG.node[2] visitedPerTimestep ETV
vector 21 RGG.node[33] visitedPerTimestep ETV
vector 22 RGG.node[30] visitedPerTimestep ETV
vector 23 RGG.node[20] visitedPerTimestep ETV
vector 24 RGG.node[12] visitedPerTimestep ETV
vector 25 RGG.node[19] visitedPerTimestep ETV
vector 26 RGG.node[10] visitedPerTimestep ETV
vector 27 RGG.node[28] visitedPerTimestep ETV
vector 28 RGG.node[5] visitedPerTimestep ETV
vector 29 RGG.node[17] visitedPerTimestep ETV
vector 30 RGG.node[48] visitedPerTimestep ETV
vector 31 RGG.node[38] visitedPerTimestep ETV
vector 32 RGG.node[25] visitedPerTimestep ETV
vector 33 RGG.node[14] visitedPerTimestep ETV
vector 34 RGG.node[44] visitedPerTimestep ETV
vector 35 RGG.node[23] visitedPerTimestep ETV
vector 36 RGG.node[8] visitedPerTimestep ETV
vector 37 RGG.node[31] visitedPerTimestep ETV
vector 38 RGG.node[40] visitedPerTimestep ETV
vector 39 RGG.node[9] visitedPerTimestep ETV
vector 40 RGG.node[0] visitedPerTimestep ETV
vector 41 RGG.node[15] visitedPerTimestep ETV
vector 42 RGG.node[4] visitedPerTimestep ETV
vector 43 RGG.node[32] visitedPerTimestep ETV
vector 44 RGG.node[22] visitedPerTimestep ETV
0	1	0	1
1	2	0	2
1	54	0	29
1	350	0	49
2	3	0	3
2	9	0	8
2	18	0	15
2	154	0	46
3	4	0	4
3	25	0	18
3	36	0	23
3	116	0	43
3	238	0	47
4	5	0	5
4	106	0	41
4	166	0	47
4	230	0	47
4	298	0	48
4	306	0	48
5	6	0	6
5	10	0	8
5	24	0	18
5	48	0	28
5	70	0	33
5	218	0	47
5	226	0	47
5	374	0	49
6	7	0	7
6	46	0	28
6	274	0	48
7	8	0	8
8	11	0	9
8	266	0	48
9	12	0	10
9	37	0	23
9	150	0	46
9	334	0	49
10	13	0	11
10	134	0	44
10	148	0	46
11	14	0	12
11	20	0	16
11	38	0	23
11	43	0	26
11	80	0	35
11	100	0	40
11	290	0	48
12	15	0	13
12	33	0	23
12	96	0	40
12	136	0	44
12	194	0	47
12	282	0	48
13	16	0	14
13	49	0	28
13	102	0	40
13	270	0	48
13	338	0	49
14	17	0	15
14	47	0	28
14	262	0	48
15	19	0	16
15	21	0	16
15	39	0	23
15	68	0	33
15	174	0	47
15	206	0	47
15	250	0	47
15	278	0	48
16	22	0	17
16	26	0	18
16	50	0	28
16	58	0	30
16	158	0	46
17	23	0	18
18	27	0	19
18	29	0	20
18	76	0	34
18	214	0	47
18	382	0	49
19	28	0	20
19	74	0	34
20	30	0	21
20	34	0	23
20	78	0	34
20	110	0	42
20	258	0	48
20	294	0	48
21	31	0	22
21	358	0	49
22	32	0	23
22	35	0	23
22	88	0	38
22	92	0	39
22	114	0	43
22	190	0	47
22	198	0	47
22	234	0	47
23	40	0	24
23	82	0	35
23	124	0	43
24	41	0	25
24	118	0	43
24	170	0	47
24	186	0	47
24	246	0	47
25	42	0	26
26	44	0	27
26	130	0	44
26	138	0	44
27	45	0	28
27	140	0	44
27	162	0	46
28	52	0	29
28	60	0	31
28	310	0	48
29	56	0	30
30	62	0	32
30	66	0	33
31	64	0	33
31	314	0	48
31	322	0	48
31	346	0	49
32	72	0	34
32	98	0	40
32	146	0	46
33	84	0	36
33	120	0	43
33	126	0	43
33	302	0	48
34	86	0	38
34	122	0	43
34	128	0	43
35	90	0	39
35	142	0	45
35	202	0	47
35	242	0	47
35	326	0	49
36	94	0	40
36	112	0	43
36	286	0	48
37	104	0	41
37	342	0	49
38	108	0	42
39	132	0	44
39	210	0	47
39	222	0	47
39	366	0	49
40	144	0	46
40	182	0	47
40	330	0	49
41	178	0	47
42	254	0	47
43	318	0	48
44	390	0	50

