file 3965 1753814218                                            
version 3
run General-29-20250729-21:36:58-51623
attr configname General
attr datetime 20250729-21:36:58
attr datetimef 20250729-213658
attr experiment General
attr inifile omnetpp.ini
attr iterationvars ""
attr iterationvarsd ""
attr iterationvarsf ""
attr measurement ""
attr network RGG
attr processid 51623
attr repetition 29
attr replication #29
attr resultdir results
attr runnumber 29
attr seedset 29
config network RGG
config seed-set 29
config num-rngs 1
config sim-time-limit 10s
config repeat 500
config **.node[*].xCor "uniform(0.0, 1.0, 0)"
config **.node[*].yCor "uniform(0.0, 1.0, 0)"
config *.numWalkers 2
config *.numNodes 50
config *.enableDuplication false
config *.rc 0.33

vector 0 RGG.node[37] visitedPerTimestep ETV
vector 1 RGG.node[3] visitedPerTimestep ETV
vector 2 RGG.node[21] visitedPerTimestep ETV
vector 3 RGG.node[35] visitedPerTimestep ETV
vector 4 RGG.node[25] visitedPerTimestep ETV
vector 5 RGG.node[8] visitedPerTimestep ETV
vector 6 RGG.node[49] visitedPerTimestep ETV
vector 7 RGG.node[23] visitedPerTimestep ETV
vector 8 RGG.node[18] visitedPerTimestep ETV
vector 9 RGG.node[43] visitedPerTimestep ETV
vector 10 RGG.node[11] visitedPerTimestep ETV
vector 11 RGG.node[40] visitedPerTimestep ETV
vector 12 RGG.node[38] visitedPerTimestep ETV
vector 13 RGG.node[10] visitedPerTimestep ETV
vector 14 RGG.node[1] visitedPerTimestep ETV
vector 15 RGG.node[42] visitedPerTimestep ETV
vector 16 RGG.node[34] visitedPerTimestep ETV
vector 17 RGG.node[16] visitedPerTimestep ETV
vector 18 RGG.node[13] visitedPerTimestep ETV
vector 19 RGG.node[5] visitedPerTimestep ETV
vector 20 RGG.node[28] visitedPerTimestep ETV
vector 21 RGG.node[47] visitedPerTimestep ETV
vector 22 RGG.node[0] visitedPerTimestep ETV
vector 23 RGG.node[31] visitedPerTimestep ETV
vector 24 RGG.node[36] visitedPerTimestep ETV
vector 25 RGG.node[27] visitedPerTimestep ETV
vector 26 RGG.node[32] visitedPerTimestep ETV
vector 27 RGG.node[12] visitedPerTimestep ETV
vector 28 RGG.node[20] visitedPerTimestep ETV
vector 29 RGG.node[15] visitedPerTimestep ETV
vector 30 RGG.node[26] visitedPerTimestep ETV
vector 31 RGG.node[22] visitedPerTimestep ETV
vector 32 RGG.node[6] visitedPerTimestep ETV
vector 33 RGG.node[24] visitedPerTimestep ETV
vector 34 RGG.node[46] visitedPerTimestep ETV
vector 35 RGG.node[14] visitedPerTimestep ETV
vector 36 RGG.node[48] visitedPerTimestep ETV
vector 37 RGG.node[44] visitedPerTimestep ETV
vector 38 RGG.node[2] visitedPerTimestep ETV
vector 39 RGG.node[30] visitedPerTimestep ETV
vector 40 RGG.node[39] visitedPerTimestep ETV
vector 41 RGG.node[4] visitedPerTimestep ETV
vector 42 RGG.node[29] visitedPerTimestep ETV
0	2654 41 2 144 0 0 4 2 43 131 5551
1	2695 38 4 60 0 0 4 4 32 59 1309
2	2733 8 6 6 0 0 1 6 6 6 36
3	2741 8 8 8 0 0 1 7 7 7 49
4	2749 20 10 146 0 0 2 9 43 52 1930
5	2769 32 14 160 0 0 3 12 43 98 3842
6	2801 10 18 18 0 0 1 14 14 14 196
7	2811 41 20 148 0 0 4 15 43 108 3422
8	2852 31 22 150 0 0 3 16 43 90 3066
9	2883 10 24 24 0 0 1 17 17 17 289
10	2893 22 28 84 0 0 2 20 38 58 1844
11	2915 57 30 228 0 0 5 22 49 188 7630
12	2972 35 32 230 0 0 3 23 49 112 4530
13	3007 47 34 220 0 0 4 25 49 156 6390
14	3054 22 36 88 0 0 2 26 38 64 2120
15	3076 80 38 216 0 0 7 27 49 270 10844
16	3156 47 40 222 0 0 4 28 49 168 7350
17	3203 34 42 224 0 0 3 30 49 117 4745
18	3237 46 46 204 0 0 4 30 48 163 6877
19	3283 33 48 82 0 0 3 30 38 98 3244
20	3316 11 56 56 0 0 1 32 32 32 1024
21	3327 23 62 156 0 0 2 33 43 76 2938
22	3350 23 64 158 0 0 2 34 43 77 3005
23	3373 47 66 162 0 0 4 35 43 164 6772
24	3420 58 68 198 0 0 5 36 48 207 8667
25	3478 34 70 200 0 0 3 36 48 121 4969
26	3512 58 80 210 0 0 5 38 49 216 9454
27	3570 11 96 96 0 0 1 39 39 39 1521
28	3581 11 98 98 0 0 1 40 40 40 1600
29	3592 24 106 226 0 0 2 41 49 90 4082
30	3616 24 114 154 0 0 2 43 43 86 3698
31	3640 24 120 140 0 0 2 43 43 86 3698
32	3664 24 124 132 0 0 2 43 43 86 3698
33	3688 48 130 202 0 0 4 43 48 177 7851
34	3736 12 142 142 0 0 1 43 43 43 1849
35	3748 12 152 152 0 0 1 43 43 43 1849
36	3760 48 166 190 0 0 4 44 47 184 8470
37	3808 36 168 186 0 0 3 45 47 138 6350
38	3844 36 170 182 0 0 3 46 47 140 6534
39	3880 48 176 192 0 0 4 47 47 188 8836
40	3928 12 194 194 0 0 1 48 48 48 2304
41	3940 12 214 214 0 0 1 49 49 49 2401
42	3952 12 232 232 0 0 1 50 50 50 2500

