version 3
run General-210-20250729-21:37:01-51949
attr configname General
attr datetime 20250729-21:37:01
attr datetimef 20250729-213701
attr experiment General
attr inifile omnetpp.ini
attr iterationvars ""
attr iterationvarsd ""
attr iterationvarsf ""
attr measurement ""
attr network RGG
attr processid 51949
attr repetition 210
attr replication #210
attr resultdir results
attr runnumber 210
attr seedset 210
config network RGG
config seed-set 210
config num-rngs 1
config sim-time-limit 10s
config repeat 500
config **.node[*].xCor "uniform(0.0, 1.0, 0)"
config **.node[*].yCor "uniform(0.0, 1.0, 0)"
config *.numWalkers 2
config *.numNodes 50
config *.enableDuplication false
config *.rc 0.33

vector 0 RGG.node[26] visitedPerTimestep ETV
vector 1 RGG.node[2] visitedPerTimestep ETV
vector 2 RGG.node[7] visitedPerTimestep ETV
vector 3 RGG.node[6] visitedPerTimestep ETV
vector 4 RGG.node[14] visitedPerTimestep ETV
vector 5 RGG.node[42] visitedPerTimestep ETV
vector 6 RGG.node[46] visitedPerTimestep ETV
vector 7 RGG.node[5] visitedPerTimestep ETV
vector 8 RGG.node[33] visitedPerTimestep ETV
vector 9 RGG.node[4] visitedPerTimestep ETV
vector 10 RGG.node[28] visitedPerTimestep ETV
vector 11 RGG.node[25] visitedPerTimestep ETV
vector 12 RGG.node[48] visitedPerTimestep ETV
vector 13 RGG.node[0] visitedPerTimestep ETV
vector 14 RGG.node[24] visitedPerTimestep ETV
vector 15 RGG.node[10] visitedPerTimestep ETV
vector 16 RGG.node[8] visitedPerTimestep ETV
vector 17 RGG.node[38] visitedPerTimestep ETV
vector 18 RGG.node[22] visitedPerTimestep ETV
vector 19 RGG.node[13] visitedPerTimestep ETV
vector 20 RGG.node[41] visitedPerTimestep ETV
vector 21 RGG.node[27] visitedPerTimestep ETV
vector 22 RGG.node[49] visitedPerTimestep ETV
vector 23 RGG.node[23] visitedPerTimestep ETV
vector 24 RGG.node[36] visitedPerTimestep ETV
vector 25 RGG.node[20] visitedPerTimestep ETV
vector 26 RGG.node[34] visitedPerTimestep ETV
vector 27 RGG.node[11] visitedPerTimestep ETV
vector 28 RGG.node[43] visitedPerTimestep ETV
vector 29 RGG.node[31] visitedPerTimestep ETV
vector 30 RGG.node[16] visitedPerTimestep ETV
vector 31 RGG.node[9] visitedPerTimestep ETV
vector 32 RGG.node[15] visitedPerTimestep ETV
vector 33 RGG.node[45] visitedPerTimestep ETV
vector 34 RGG.node[37] visitedPerTimestep ETV
vector 35 RGG.node[32] visitedPerTimestep ETV
vector 36 RGG.node[29] visitedPerTimestep ETV
vector 37 RGG.node[30] visitedPerTimestep ETV
vector 38 RGG.node[18] visitedPerTimestep ETV
vector 39 RGG.node[12] visitedPerTimestep ETV
vector 40 RGG.node[40] visitedPerTimestep ETV
vector 41 RGG.node[19] visitedPerTimestep ETV
vector 42 RGG.node[17] visitedPerTimestep ETV
vector 43 RGG.node[35] visitedPerTimestep ETV
vector 44 RGG.node[44] visitedPerTimestep ETV
vector 45 RGG.node[3] visitedPerTimestep ETV
0	2	0	2
0	86	0	41
0	96	0	41
0	104	0	41
0	136	0	41
0	206	0	41
0	248	0	41
0	258	0	41
0	264	0	41
0	268	0	41
0	308	0	41
0	412	0	47
0	436	0	47
0	466	0	47
0	528	0	47
1	4	0	4
1	54	0	31
1	58	0	33
1	146	0	41
1	160	0	41
1	180	0	41
1	316	0	44
1	420	0	47
1	446	0	47
1	472	0	47
1	492	0	47
1	538	0	47
2	6	0	5
2	64	0	36
2	68	0	36
2	118	0	41
2	142	0	41
2	192	0	41
2	214	0	41
2	220	0	41
2	234	0	41
2	242	0	41
2	270	0	41
2	282	0	41
2	462	0	47
2	518	0	47
2	580	0	47
3	8	0	7
3	66	0	36
3	124	0	41
3	204	0	41
3	302	0	41
4	10	0	9
4	126	0	41
4	138	0	41
4	430	0	47
4	434	0	47
4	468	0	47
5	12	0	10
5	354	0	45
6	14	0	12
6	352	0	45
7	16	0	14
7	22	0	18
7	364	0	45
8	18	0	16
8	340	0	45
9	20	0	18
9	26	0	21
9	32	0	23
9	342	0	45
9	348	0	45
9	378	0	45
9	382	0	45
10	24	0	20
10	128	0	41
10	428	0	47
11	28	0	22
11	332	0	44
11	384	0	45
12	30	0	23
12	344	0	45
12	388	0	46
13	34	0	25
13	346	0	45
13	376	0	45
14	36	0	26
14	328	0	44
14	338	0	45
14	366	0	45
15	38	0	27
15	396	0	47
16	40	0	28
16	336	0	44
16	368	0	45
16	372	0	45
16	390	0	46
16	398	0	47
16	404	0	47
17	42	0	30
17	596	0	47
17	600	0	47
17	604	0	48
17	610	0	49
18	44	0	30
18	74	0	37
18	166	0	41
18	172	0	41
18	210	0	41
18	418	0	47
18	450	0	47
18	484	0	47
18	498	0	47
18	522	0	47
18	544	0	47
18	586	0	47
18	606	0	48
19	46	0	30
19	50	0	30
19	176	0	41
19	184	0	41
19	228	0	41
19	478	0	47
19	500	0	47
19	524	0	47
19	546	0	47
19	560	0	47
19	564	0	47
19	584	0	47
20	48	0	30
20	90	0	41
20	148	0	41
20	158	0	41
20	174	0	41
20	200	0	41
20	212	0	41
20	224	0	41
20	266	0	41
20	290	0	41
20	416	0	47
20	490	0	47
20	562	0	47
21	52	0	30
21	76	0	37
21	152	0	41
21	272	0	41
21	314	0	43
21	508	0	47
21	556	0	47
22	56	0	32
22	70	0	37
22	80	0	38
22	94	0	41
22	114	0	41
22	222	0	41
22	244	0	41
22	284	0	41
22	300	0	41
22	304	0	41
22	414	0	47
22	432	0	47
22	456	0	47
22	460	0	47
22	510	0	47
22	570	0	47
22	574	0	47
23	60	0	33
23	108	0	41
23	144	0	41
23	170	0	41
23	452	0	47
23	520	0	47
23	540	0	47
24	62	0	35
24	88	0	41
24	98	0	41
24	132	0	41
24	274	0	41
24	324	0	44
24	406	0	47
24	488	0	47
24	506	0	47
24	590	0	47
25	72	0	37
25	92	0	41
25	178	0	41
25	182	0	41
25	246	0	41
25	256	0	41
25	292	0	41
25	442	0	47
25	458	0	47
25	482	0	47
25	496	0	47
25	526	0	47
25	534	0	47
25	558	0	47
26	78	0	38
26	102	0	41
26	112	0	41
26	122	0	41
26	134	0	41
26	156	0	41
26	254	0	41
26	278	0	41
26	286	0	41
26	298	0	41
26	306	0	41
26	454	0	47
26	470	0	47
26	474	0	47
26	504	0	47
26	532	0	47
26	550	0	47
27	82	0	39
27	514	0	47
27	576	0	47
28	84	0	41
28	140	0	41
28	512	0	47
28	530	0	47
28	572	0	47
28	578	0	47
29	100	0	41
29	250	0	41
29	260	0	41
29	322	0	44
29	424	0	47
29	438	0	47
29	536	0	47
30	106	0	41
30	120	0	41
30	196	0	41
30	208	0	41
30	218	0	41
30	238	0	41
30	280	0	41
30	288	0	41
30	310	0	41
30	444	0	47
30	448	0	47
30	464	0	47
30	486	0	47
30	542	0	47
31	110	0	41
31	164	0	41
31	252	0	41
31	422	0	47
31	476	0	47
31	502	0	47
31	552	0	47
31	566	0	47
32	116	0	41
32	194	0	41
32	202	0	41
32	516	0	47
33	130	0	41
33	370	0	45
33	380	0	45
33	402	0	47
33	408	0	47
33	426	0	47
33	592	0	47
34	150	0	41
34	168	0	41
34	188	0	41
34	198	0	41
34	216	0	41
34	226	0	41
34	230	0	41
34	240	0	41
34	294	0	41
34	494	0	47
34	582	0	47
35	154	0	41
35	162	0	41
35	186	0	41
35	232	0	41
35	236	0	41
35	312	0	42
35	318	0	44
35	480	0	47
36	190	0	41
36	262	0	41
36	276	0	41
36	296	0	41
36	320	0	44
36	440	0	47
36	548	0	47
36	554	0	47
36	568	0	47
36	588	0	47
37	326	0	44
37	330	0	44
37	374	0	45
37	410	0	47
38	334	0	44
39	350	0	45
39	358	0	45
39	362	0	45
40	356	0	45
40	360	0	45
41	386	0	46
42	392	0	46
43	394	0	47
44	400	0	47
44	594	0	47
44	598	0	47
45	602	0	48
45	608	0	48
45	612	0	50

