version 3
run General-453-20250808-22:38:15-7138
attr configname General
attr datetime 20250808-22:38:15
attr datetimef 20250808-223815
attr experiment General
attr inifile omnetpp.ini
attr iterationvars ""
attr iterationvarsd ""
attr iterationvarsf ""
attr measurement ""
attr network RGG
attr processid 7138
attr repetition 453
attr replication #453
attr resultdir results
attr runnumber 453
attr seedset 453
config network RGG
config seed-set 453
config num-rngs 1
config sim-time-limit 10s
config repeat 500
config **.node[*].xCor "uniform(0.0, 1.0, 0)"
config **.node[*].yCor "uniform(0.0, 1.0, 0)"
config *.numWalkers 1
config *.numNodes 50
config *.enableDuplication true
config *.rc 0.4

vector 0 RGG.node[1] visitedPerTimestep ETV
vector 1 RGG.node[11] visitedPerTimestep ETV
vector 2 RGG.node[33] visitedPerTimestep ETV
vector 3 RGG.node[28] visitedPerTimestep ETV
vector 4 RGG.node[44] visitedPerTimestep ETV
vector 5 RGG.node[26] visitedPerTimestep ETV
vector 6 RGG.node[13] visitedPerTimestep ETV
vector 7 RGG.node[41] visitedPerTimestep ETV
vector 8 RGG.node[39] visitedPerTimestep ETV
vector 9 RGG.node[37] visitedPerTimestep ETV
vector 10 RGG.node[40] visitedPerTimestep ETV
vector 11 RGG.node[43] visitedPerTimestep ETV
vector 12 RGG.node[8] visitedPerTimestep ETV
vector 13 RGG.node[34] visitedPerTimestep ETV
vector 14 RGG.node[5] visitedPerTimestep ETV
vector 15 RGG.node[16] visitedPerTimestep ETV
vector 16 RGG.node[7] visitedPerTimestep ETV
vector 17 RGG.node[38] visitedPerTimestep ETV
vector 18 RGG.node[15] visitedPerTimestep ETV
vector 19 RGG.node[32] visitedPerTimestep ETV
vector 20 RGG.node[42] visitedPerTimestep ETV
vector 21 RGG.node[31] visitedPerTimestep ETV
vector 22 RGG.node[24] visitedPerTimestep ETV
vector 23 RGG.node[12] visitedPerTimestep ETV
vector 24 RGG.node[18] visitedPerTimestep ETV
vector 25 RGG.node[17] visitedPerTimestep ETV
vector 26 RGG.node[47] visitedPerTimestep ETV
vector 27 RGG.node[22] visitedPerTimestep ETV
vector 28 RGG.node[45] visitedPerTimestep ETV
vector 29 RGG.node[30] visitedPerTimestep ETV
vector 30 RGG.node[9] visitedPerTimestep ETV
vector 31 RGG.node[35] visitedPerTimestep ETV
vector 32 RGG.node[20] visitedPerTimestep ETV
vector 33 RGG.node[49] visitedPerTimestep ETV
vector 34 RGG.node[29] visitedPerTimestep ETV
vector 35 RGG.node[27] visitedPerTimestep ETV
vector 36 RGG.node[2] visitedPerTimestep ETV
vector 37 RGG.node[3] visitedPerTimestep ETV
vector 38 RGG.node[0] visitedPerTimestep ETV
vector 39 RGG.node[19] visitedPerTimestep ETV
vector 40 RGG.node[21] visitedPerTimestep ETV
vector 41 RGG.node[36] visitedPerTimestep ETV
vector 42 RGG.node[46] visitedPerTimestep ETV
vector 43 RGG.node[48] visitedPerTimestep ETV
vector 44 RGG.node[4] visitedPerTimestep ETV
0	1	0	1
0	31	0	20
0	118	0	43
0	140	0	47
1	2	0	2
1	5	0	4
1	8	0	5
1	14	0	9
1	112	0	43
1	218	0	49
2	3	0	3
2	15	0	9
2	148	0	47
2	294	0	49
3	4	0	4
3	6	0	4
3	26	0	18
3	154	0	47
3	170	0	48
3	242	0	49
4	7	0	5
4	162	0	48
4	174	0	48
4	234	0	49
4	246	0	49
4	254	0	49
5	9	0	6
5	238	0	49
6	10	0	7
6	12	0	8
6	27	0	18
6	158	0	48
6	166	0	48
7	11	0	8
7	290	0	49
8	13	0	9
8	122	0	43
8	150	0	47
8	194	0	49
9	16	0	10
9	106	0	43
10	17	0	11
10	104	0	42
10	298	0	49
11	18	0	12
11	35	0	21
11	52	0	32
11	70	0	38
11	74	0	39
11	102	0	42
12	19	0	13
12	36	0	21
12	42	0	26
12	47	0	29
12	100	0	42
13	20	0	14
13	76	0	39
13	80	0	40
13	84	0	41
13	94	0	41
13	306	0	50
14	21	0	15
14	82	0	40
15	22	0	16
15	44	0	27
15	60	0	32
16	23	0	17
16	25	0	18
16	29	0	19
16	114	0	43
16	146	0	47
16	250	0	49
16	278	0	49
17	24	0	18
17	33	0	21
18	28	0	19
18	124	0	43
19	30	0	20
19	34	0	21
20	32	0	21
20	108	0	43
20	120	0	43
20	128	0	44
20	286	0	49
21	37	0	22
22	38	0	23
22	90	0	41
23	39	0	24
23	50	0	31
23	66	0	35
23	142	0	47
24	40	0	25
24	54	0	32
24	58	0	32
24	72	0	38
24	92	0	41
24	116	0	43
24	144	0	47
25	41	0	26
25	56	0	32
25	78	0	40
26	43	0	27
26	88	0	41
27	45	0	28
28	46	0	29
29	48	0	30
29	302	0	49
30	49	0	31
30	62	0	33
30	96	0	41
31	64	0	34
31	86	0	41
32	68	0	37
32	98	0	42
33	110	0	43
33	182	0	48
33	222	0	49
33	230	0	49
34	126	0	44
35	130	0	46
36	132	0	46
36	206	0	49
37	134	0	47
37	198	0	49
37	270	0	49
38	136	0	47
38	186	0	49
38	214	0	49
39	138	0	47
39	202	0	49
39	258	0	49
39	274	0	49
40	178	0	48
40	210	0	49
40	262	0	49
41	190	0	49
42	226	0	49
43	266	0	49
44	282	0	49

