file 3968 1754681895                                            
version 3
run General-467-20250808-22:38:15-7158
attr configname General
attr datetime 20250808-22:38:15
attr datetimef 20250808-223815
attr experiment General
attr inifile omnetpp.ini
attr iterationvars ""
attr iterationvarsd ""
attr iterationvarsf ""
attr measurement ""
attr network RGG
attr processid 7158
attr repetition 467
attr replication #467
attr resultdir results
attr runnumber 467
attr seedset 467
config network RGG
config seed-set 467
config num-rngs 1
config sim-time-limit 10s
config repeat 500
config **.node[*].xCor "uniform(0.0, 1.0, 0)"
config **.node[*].yCor "uniform(0.0, 1.0, 0)"
config *.numWalkers 1
config *.numNodes 50
config *.enableDuplication true
config *.rc 0.4

vector 0 RGG.node[13] visitedPerTimestep ETV
vector 1 RGG.node[12] visitedPerTimestep ETV
vector 2 RGG.node[28] visitedPerTimestep ETV
vector 3 RGG.node[7] visitedPerTimestep ETV
vector 4 RGG.node[48] visitedPerTimestep ETV
vector 5 RGG.node[20] visitedPerTimestep ETV
vector 6 RGG.node[21] visitedPerTimestep ETV
vector 7 RGG.node[15] visitedPerTimestep ETV
vector 8 RGG.node[23] visitedPerTimestep ETV
vector 9 RGG.node[14] visitedPerTimestep ETV
vector 10 RGG.node[24] visitedPerTimestep ETV
vector 11 RGG.node[16] visitedPerTimestep ETV
vector 12 RGG.node[8] visitedPerTimestep ETV
vector 13 RGG.node[9] visitedPerTimestep ETV
vector 14 RGG.node[10] visitedPerTimestep ETV
vector 15 RGG.node[26] visitedPerTimestep ETV
vector 16 RGG.node[18] visitedPerTimestep ETV
vector 17 RGG.node[46] visitedPerTimestep ETV
vector 18 RGG.node[43] visitedPerTimestep ETV
vector 19 RGG.node[42] visitedPerTimestep ETV
vector 20 RGG.node[27] visitedPerTimestep ETV
vector 21 RGG.node[36] visitedPerTimestep ETV
vector 22 RGG.node[34] visitedPerTimestep ETV
vector 23 RGG.node[0] visitedPerTimestep ETV
vector 24 RGG.node[2] visitedPerTimestep ETV
vector 25 RGG.node[6] visitedPerTimestep ETV
vector 26 RGG.node[4] visitedPerTimestep ETV
vector 27 RGG.node[11] visitedPerTimestep ETV
vector 28 RGG.node[39] visitedPerTimestep ETV
vector 29 RGG.node[49] visitedPerTimestep ETV
vector 30 RGG.node[33] visitedPerTimestep ETV
vector 31 RGG.node[44] visitedPerTimestep ETV
vector 32 RGG.node[35] visitedPerTimestep ETV
vector 33 RGG.node[32] visitedPerTimestep ETV
vector 34 RGG.node[31] visitedPerTimestep ETV
vector 35 RGG.node[37] visitedPerTimestep ETV
vector 36 RGG.node[17] visitedPerTimestep ETV
vector 37 RGG.node[3] visitedPerTimestep ETV
vector 38 RGG.node[29] visitedPerTimestep ETV
vector 39 RGG.node[40] visitedPerTimestep ETV
vector 40 RGG.node[5] visitedPerTimestep ETV
vector 41 RGG.node[30] visitedPerTimestep ETV
vector 42 RGG.node[38] visitedPerTimestep ETV
0	2655 18 1 72 0 0 2 1 37 38 1370
1	2673 69 2 140 0 0 7 2 46 213 8813
2	2742 49 3 136 0 0 5 3 46 143 5843
3	2791 39 4 144 0 0 4 4 46 118 4644
4	2830 82 5 226 0 0 8 5 49 256 10278
5	2912 18 6 52 0 0 2 6 29 35 877
6	2930 8 8 8 0 0 1 7 7 7 49
7	2938 60 9 230 0 0 6 8 49 187 7659
8	2998 49 10 158 0 0 5 9 47 103 3255
9	3047 42 14 202 0 0 4 10 48 140 5816
10	3089 46 16 210 0 0 4 11 48 127 5025
11	3135 22 17 76 0 0 2 12 37 49 1513
12	3157 56 19 234 0 0 5 13 50 143 4813
13	3213 22 20 40 0 0 2 14 27 41 925
14	3235 22 21 27 0 0 2 15 20 35 625
15	3257 56 22 182 0 0 5 16 48 159 5673
16	3313 23 23 190 0 0 2 17 48 65 2593
17	3336 35 24 194 0 0 3 18 48 113 4837
18	3371 11 25 25 0 0 1 19 19 19 361
19	3382 23 26 186 0 0 2 20 48 68 2704
20	3405 11 28 28 0 0 1 21 21 21 441
21	3416 11 29 29 0 0 1 22 22 22 484
22	3427 11 31 31 0 0 1 23 23 23 529
23	3438 34 32 134 0 0 3 24 46 107 4061
24	3472 11 37 37 0 0 1 25 25 25 625
25	3483 22 38 43 0 0 2 26 27 53 1405
26	3505 45 39 178 0 0 4 27 48 141 5283
27	3550 45 44 162 0 0 4 28 47 156 6274
28	3595 11 54 54 0 0 1 29 29 29 841
29	3606 34 56 130 0 0 3 30 46 112 4312
30	3640 47 58 174 0 0 4 32 48 172 7560
31	3687 23 60 214 0 0 2 33 48 81 3393
32	3710 47 62 198 0 0 4 34 48 174 7692
33	3757 11 64 64 0 0 1 35 35 35 1225
34	3768 11 70 70 0 0 1 37 37 37 1369
35	3779 23 78 218 0 0 2 38 48 86 3748
36	3802 35 80 148 0 0 3 38 46 130 5676
37	3837 23 92 166 0 0 2 42 47 89 3973
38	3860 23 94 110 0 0 2 42 46 88 3880
39	3883 24 100 116 0 0 2 44 46 90 4052
40	3907 24 104 108 0 0 2 46 46 92 4232
41	3931 12 150 150 0 0 1 46 46 46 2116
42	3943 24 206 222 0 0 2 48 49 97 4705

