version 3
run General-468-20250808-22:38:15-7163
attr configname General
attr datetime 20250808-22:38:15
attr datetimef 20250808-223815
attr experiment General
attr inifile omnetpp.ini
attr iterationvars ""
attr iterationvarsd ""
attr iterationvarsf ""
attr measurement ""
attr network RGG
attr processid 7163
attr repetition 468
attr replication #468
attr resultdir results
attr runnumber 468
attr seedset 468
config network RGG
config seed-set 468
config num-rngs 1
config sim-time-limit 10s
config repeat 500
config **.node[*].xCor "uniform(0.0, 1.0, 0)"
config **.node[*].yCor "uniform(0.0, 1.0, 0)"
config *.numWalkers 1
config *.numNodes 50
config *.enableDuplication true
config *.rc 0.4

vector 0 RGG.node[11] visitedPerTimestep ETV
vector 1 RGG.node[7] visitedPerTimestep ETV
vector 2 RGG.node[45] visitedPerTimestep ETV
vector 3 RGG.node[39] visitedPerTimestep ETV
vector 4 RGG.node[33] visitedPerTimestep ETV
vector 5 RGG.node[21] visitedPerTimestep ETV
vector 6 RGG.node[22] visitedPerTimestep ETV
vector 7 RGG.node[3] visitedPerTimestep ETV
vector 8 RGG.node[35] visitedPerTimestep ETV
vector 9 RGG.node[34] visitedPerTimestep ETV
vector 10 RGG.node[46] visitedPerTimestep ETV
vector 11 RGG.node[37] visitedPerTimestep ETV
vector 12 RGG.node[14] visitedPerTimestep ETV
vector 13 RGG.node[43] visitedPerTimestep ETV
vector 14 RGG.node[1] visitedPerTimestep ETV
vector 15 RGG.node[30] visitedPerTimestep ETV
vector 16 RGG.node[31] visitedPerTimestep ETV
vector 17 RGG.node[41] visitedPerTimestep ETV
vector 18 RGG.node[0] visitedPerTimestep ETV
vector 19 RGG.node[9] visitedPerTimestep ETV
vector 20 RGG.node[36] visitedPerTimestep ETV
vector 21 RGG.node[29] visitedPerTimestep ETV
vector 22 RGG.node[28] visitedPerTimestep ETV
vector 23 RGG.node[32] visitedPerTimestep ETV
vector 24 RGG.node[26] visitedPerTimestep ETV
vector 25 RGG.node[17] visitedPerTimestep ETV
vector 26 RGG.node[27] visitedPerTimestep ETV
vector 27 RGG.node[38] visitedPerTimestep ETV
vector 28 RGG.node[16] visitedPerTimestep ETV
vector 29 RGG.node[25] visitedPerTimestep ETV
vector 30 RGG.node[13] visitedPerTimestep ETV
vector 31 RGG.node[12] visitedPerTimestep ETV
vector 32 RGG.node[44] visitedPerTimestep ETV
vector 33 RGG.node[18] visitedPerTimestep ETV
vector 34 RGG.node[8] visitedPerTimestep ETV
vector 35 RGG.node[40] visitedPerTimestep ETV
vector 36 RGG.node[24] visitedPerTimestep ETV
vector 37 RGG.node[48] visitedPerTimestep ETV
vector 38 RGG.node[4] visitedPerTimestep ETV
vector 39 RGG.node[49] visitedPerTimestep ETV
vector 40 RGG.node[5] visitedPerTimestep ETV
vector 41 RGG.node[42] visitedPerTimestep ETV
vector 42 RGG.node[10] visitedPerTimestep ETV
vector 43 RGG.node[19] visitedPerTimestep ETV
0	1	0	1
0	262	0	49
1	2	0	2
2	3	0	3
2	206	0	47
2	282	0	49
2	290	0	49
2	346	0	49
3	4	0	4
3	342	0	49
4	5	0	5
4	11	0	10
4	17	0	13
4	48	0	28
4	76	0	33
4	158	0	45
4	250	0	49
4	374	0	49
5	6	0	6
5	37	0	24
5	70	0	32
5	182	0	46
5	198	0	47
5	222	0	49
6	7	0	7
6	13	0	11
6	46	0	28
6	80	0	34
6	314	0	49
6	366	0	49
7	8	0	8
7	16	0	13
7	38	0	24
7	138	0	45
7	218	0	49
7	318	0	49
7	406	0	49
8	9	0	9
8	31	0	22
8	44	0	27
8	49	0	28
8	230	0	49
8	238	0	49
8	322	0	49
9	10	0	10
9	23	0	18
9	28	0	20
9	33	0	22
9	106	0	37
9	330	0	49
9	338	0	49
10	12	0	11
10	246	0	49
10	358	0	49
11	14	0	12
11	41	0	26
11	126	0	43
11	274	0	49
12	15	0	13
12	42	0	26
13	18	0	14
13	66	0	32
13	84	0	34
13	98	0	36
13	226	0	49
13	302	0	49
13	438	0	49
14	19	0	15
14	132	0	44
14	334	0	49
15	20	0	16
15	270	0	49
15	278	0	49
16	21	0	17
16	130	0	44
16	144	0	45
17	22	0	18
17	25	0	19
17	104	0	36
17	454	0	49
18	24	0	19
18	26	0	19
18	32	0	22
18	100	0	36
18	234	0	49
18	470	0	50
19	27	0	20
19	47	0	28
19	78	0	34
19	136	0	45
19	154	0	45
20	29	0	21
20	34	0	22
20	74	0	33
20	150	0	45
20	178	0	46
20	242	0	49
21	30	0	22
21	64	0	32
21	148	0	45
22	35	0	23
23	36	0	24
23	50	0	28
23	54	0	29
23	72	0	32
23	174	0	46
23	298	0	49
24	39	0	25
24	140	0	45
24	310	0	49
25	40	0	26
25	202	0	47
26	43	0	27
26	110	0	37
26	190	0	47
26	294	0	49
26	382	0	49
26	422	0	49
27	45	0	28
27	82	0	34
27	114	0	39
27	186	0	46
27	430	0	49
28	52	0	29
28	68	0	32
28	194	0	47
29	56	0	30
29	62	0	32
29	86	0	34
29	94	0	36
29	102	0	36
29	170	0	46
29	326	0	49
29	446	0	49
30	58	0	31
30	108	0	37
30	134	0	45
30	146	0	45
30	166	0	46
30	462	0	49
31	60	0	32
31	162	0	45
31	254	0	49
32	88	0	35
32	92	0	36
32	96	0	36
33	90	0	36
34	112	0	39
34	214	0	49
34	286	0	49
34	390	0	49
34	414	0	49
35	116	0	40
35	210	0	48
36	118	0	41
37	120	0	41
37	142	0	45
37	350	0	49
38	122	0	42
38	306	0	49
39	124	0	43
40	128	0	44
41	258	0	49
42	266	0	49
43	398	0	49

