version 3
run General-128-20250729-21:36:59-51803
attr configname General
attr datetime 20250729-21:36:59
attr datetimef 20250729-213659
attr experiment General
attr inifile omnetpp.ini
attr iterationvars ""
attr iterationvarsd ""
attr iterationvarsf ""
attr measurement ""
attr network RGG
attr processid 51803
attr repetition 128
attr replication #128
attr resultdir results
attr runnumber 128
attr seedset 128
config network RGG
config seed-set 128
config num-rngs 1
config sim-time-limit 10s
config repeat 500
config **.node[*].xCor "uniform(0.0, 1.0, 0)"
config **.node[*].yCor "uniform(0.0, 1.0, 0)"
config *.numWalkers 2
config *.numNodes 50
config *.enableDuplication false
config *.rc 0.33

vector 0 RGG.node[23] visitedPerTimestep ETV
vector 1 RGG.node[12] visitedPerTimestep ETV
vector 2 RGG.node[42] visitedPerTimestep ETV
vector 3 RGG.node[5] visitedPerTimestep ETV
vector 4 RGG.node[21] visitedPerTimestep ETV
vector 5 RGG.node[14] visitedPerTimestep ETV
vector 6 RGG.node[25] visitedPerTimestep ETV
vector 7 RGG.node[29] visitedPerTimestep ETV
vector 8 RGG.node[7] visitedPerTimestep ETV
vector 9 RGG.node[17] visitedPerTimestep ETV
vector 10 RGG.node[24] visitedPerTimestep ETV
vector 11 RGG.node[40] visitedPerTimestep ETV
vector 12 RGG.node[48] visitedPerTimestep ETV
vector 13 RGG.node[16] visitedPerTimestep ETV
vector 14 RGG.node[0] visitedPerTimestep ETV
vector 15 RGG.node[19] visitedPerTimestep ETV
vector 16 RGG.node[6] visitedPerTimestep ETV
vector 17 RGG.node[3] visitedPerTimestep ETV
vector 18 RGG.node[32] visitedPerTimestep ETV
vector 19 RGG.node[37] visitedPerTimestep ETV
vector 20 RGG.node[46] visitedPerTimestep ETV
vector 21 RGG.node[41] visitedPerTimestep ETV
vector 22 RGG.node[38] visitedPerTimestep ETV
vector 23 RGG.node[30] visitedPerTimestep ETV
vector 24 RGG.node[47] visitedPerTimestep ETV
vector 25 RGG.node[10] visitedPerTimestep ETV
vector 26 RGG.node[15] visitedPerTimestep ETV
vector 27 RGG.node[1] visitedPerTimestep ETV
vector 28 RGG.node[4] visitedPerTimestep ETV
vector 29 RGG.node[28] visitedPerTimestep ETV
vector 30 RGG.node[26] visitedPerTimestep ETV
vector 31 RGG.node[43] visitedPerTimestep ETV
vector 32 RGG.node[20] visitedPerTimestep ETV
vector 33 RGG.node[44] visitedPerTimestep ETV
vector 34 RGG.node[35] visitedPerTimestep ETV
vector 35 RGG.node[27] visitedPerTimestep ETV
vector 36 RGG.node[34] visitedPerTimestep ETV
vector 37 RGG.node[8] visitedPerTimestep ETV
vector 38 RGG.node[2] visitedPerTimestep ETV
vector 39 RGG.node[11] visitedPerTimestep ETV
vector 40 RGG.node[13] visitedPerTimestep ETV
vector 41 RGG.node[36] visitedPerTimestep ETV
vector 42 RGG.node[33] visitedPerTimestep ETV
vector 43 RGG.node[45] visitedPerTimestep ETV
vector 44 RGG.node[49] visitedPerTimestep ETV
0	2	0	2
0	22	0	15
0	28	0	16
0	60	0	28
0	210	0	49
1	4	0	3
1	10	0	8
1	186	0	49
1	190	0	49
2	6	0	5
2	62	0	28
2	216	0	49
3	8	0	7
3	30	0	17
3	184	0	49
4	12	0	8
4	124	0	44
4	182	0	49
5	14	0	10
5	66	0	28
5	70	0	29
5	114	0	42
5	164	0	47
6	16	0	12
6	100	0	40
6	154	0	47
6	170	0	48
7	18	0	14
7	116	0	42
7	120	0	43
8	20	0	15
8	32	0	18
8	64	0	28
8	218	0	49
9	24	0	16
9	44	0	27
9	214	0	49
10	26	0	16
11	34	0	19
11	56	0	28
12	36	0	21
12	54	0	28
12	58	0	28
13	38	0	23
13	52	0	28
14	40	0	24
14	50	0	28
14	212	0	49
15	42	0	26
15	48	0	28
16	46	0	28
17	68	0	29
17	74	0	30
17	160	0	47
18	72	0	30
18	150	0	47
18	172	0	48
19	76	0	31
19	92	0	39
19	98	0	40
19	102	0	40
20	78	0	32
20	90	0	39
20	162	0	47
21	80	0	33
21	94	0	39
21	108	0	41
22	82	0	35
22	88	0	38
23	84	0	37
23	110	0	41
24	86	0	38
25	96	0	40
25	104	0	40
26	106	0	41
26	188	0	49
27	112	0	42
28	118	0	43
28	122	0	44
28	166	0	47
28	174	0	48
29	126	0	44
29	194	0	49
29	208	0	49
29	220	0	49
29	224	0	49
30	128	0	44
30	134	0	45
31	130	0	44
31	198	0	49
31	222	0	49
32	132	0	45
32	140	0	45
32	200	0	49
33	136	0	45
33	142	0	45
33	196	0	49
34	138	0	45
34	202	0	49
35	144	0	46
36	146	0	47
37	148	0	47
37	178	0	49
38	152	0	47
39	156	0	47
40	158	0	47
40	168	0	47
40	176	0	48
41	180	0	49
42	192	0	49
43	204	0	49
44	206	0	49
44	226	0	50

