file 3873 1754681894                                            
version 3
run General-396-20250808-22:38:14-7043
attr configname General
attr datetime 20250808-22:38:14
attr datetimef 20250808-223814
attr experiment General
attr inifile omnetpp.ini
attr iterationvars ""
attr iterationvarsd ""
attr iterationvarsf ""
attr measurement ""
attr network RGG
attr processid 7043
attr repetition 396
attr replication #396
attr resultdir results
attr runnumber 396
attr seedset 396
config network RGG
config seed-set 396
config num-rngs 1
config sim-time-limit 10s
config repeat 500
config **.node[*].xCor "uniform(0.0, 1.0, 0)"
config **.node[*].yCor "uniform(0.0, 1.0, 0)"
config *.numWalkers 1
config *.numNodes 50
config *.enableDuplication true
config *.rc 0.4

vector 0 RGG.node[28] visitedPerTimestep ETV
vector 1 RGG.node[41] visitedPerTimestep ETV
vector 2 RGG.node[6] visitedPerTimestep ETV
vector 3 RGG.node[5] visitedPerTimestep ETV
vector 4 RGG.node[27] visitedPerTimestep ETV
vector 5 RGG.node[46] visitedPerTimestep ETV
vector 6 RGG.node[31] visitedPerTimestep ETV
vector 7 RGG.node[21] visitedPerTimestep ETV
vector 8 RGG.node[45] visitedPerTimestep ETV
vector 9 RGG.node[12] visitedPerTimestep ETV
vector 10 RGG.node[34] visitedPerTimestep ETV
vector 11 RGG.node[17] visitedPerTimestep ETV
vector 12 RGG.node[48] visitedPerTimestep ETV
vector 13 RGG.node[44] visitedPerTimestep ETV
vector 14 RGG.node[2] visitedPerTimestep ETV
vector 15 RGG.node[20] visitedPerTimestep ETV
vector 16 RGG.node[39] visitedPerTimestep ETV
vector 17 RGG.node[7] visitedPerTimestep ETV
vector 18 RGG.node[22] visitedPerTimestep ETV
vector 19 RGG.node[16] visitedPerTimestep ETV
vector 20 RGG.node[43] visitedPerTimestep ETV
vector 21 RGG.node[32] visitedPerTimestep ETV
vector 22 RGG.node[49] visitedPerTimestep ETV
vector 23 RGG.node[0] visitedPerTimestep ETV
vector 24 RGG.node[18] visitedPerTimestep ETV
vector 25 RGG.node[8] visitedPerTimestep ETV
vector 26 RGG.node[3] visitedPerTimestep ETV
vector 27 RGG.node[10] visitedPerTimestep ETV
vector 28 RGG.node[26] visitedPerTimestep ETV
vector 29 RGG.node[13] visitedPerTimestep ETV
vector 30 RGG.node[38] visitedPerTimestep ETV
vector 31 RGG.node[19] visitedPerTimestep ETV
vector 32 RGG.node[47] visitedPerTimestep ETV
vector 33 RGG.node[9] visitedPerTimestep ETV
vector 34 RGG.node[37] visitedPerTimestep ETV
vector 35 RGG.node[1] visitedPerTimestep ETV
vector 36 RGG.node[24] visitedPerTimestep ETV
vector 37 RGG.node[30] visitedPerTimestep ETV
vector 38 RGG.node[29] visitedPerTimestep ETV
vector 39 RGG.node[11] visitedPerTimestep ETV
vector 40 RGG.node[42] visitedPerTimestep ETV
vector 41 RGG.node[35] visitedPerTimestep ETV
0	2609 49 1 118 0 0 5 1 38 91 2375
1	2658 29 2 116 0 0 3 2 38 60 1848
2	2687 8 3 3 0 0 1 3 3 3 9
3	2695 29 4 206 0 0 3 4 49 69 2673
4	2724 30 5 146 0 0 3 5 44 91 3725
5	2754 28 6 64 0 0 3 6 33 71 2149
6	2782 46 7 88 0 0 5 7 35 117 3583
7	2828 39 8 144 0 0 4 8 44 120 4314
8	2867 61 10 130 0 0 6 9 41 171 5891
9	2928 30 11 25 0 0 3 10 18 43 649
10	2958 44 12 76 0 0 4 11 34 99 2737
11	3002 34 13 108 0 0 3 12 38 71 2029
12	3036 46 15 178 0 0 4 13 45 119 4475
13	3082 22 17 34 0 0 2 14 20 34 596
14	3104 23 18 166 0 0 2 15 45 60 2250
15	3127 23 20 194 0 0 2 16 47 63 2465
16	3150 69 23 210 0 0 6 17 49 194 7058
17	3219 34 24 174 0 0 3 18 45 82 2710
18	3253 46 27 120 0 0 4 19 38 115 3649
19	3299 23 30 110 0 0 2 20 38 58 1844
20	3322 35 35 214 0 0 3 21 50 109 4385
21	3357 22 37 47 0 0 2 22 28 50 1268
22	3379 44 38 48 0 0 4 23 28 105 2773
23	3423 23 39 124 0 0 2 24 39 63 2097
24	3446 22 40 49 0 0 2 25 28 53 1409
25	3468 23 41 106 0 0 2 26 38 64 2120
26	3491 23 44 104 0 0 2 27 38 65 2173
27	3514 11 45 45 0 0 1 28 28 28 784
28	3525 22 52 78 0 0 2 30 34 64 2056
29	3547 11 54 54 0 0 1 30 30 30 900
30	3558 23 56 136 0 0 2 31 43 74 2810
31	3581 22 58 70 0 0 2 32 33 65 2113
32	3603 22 62 96 0 0 2 33 37 70 2458
33	3625 57 74 138 0 0 5 34 44 187 7061
34	3682 23 86 140 0 0 2 35 44 79 3161
35	3705 59 98 148 0 0 5 38 44 209 8765
36	3764 36 150 198 0 0 3 44 48 139 6449
37	3800 24 154 182 0 0 2 45 45 90 4050
38	3824 12 158 158 0 0 1 45 45 45 2025
39	3836 12 162 162 0 0 1 45 45 45 2025
40	3848 12 186 186 0 0 1 46 46 46 2116
41	3860 12 202 202 0 0 1 49 49 49 2401

