version 3
run General-385-20250729-21:37:05-52241
attr configname General
attr datetime 20250729-21:37:05
attr datetimef 20250729-213705
attr experiment General
attr inifile omnetpp.ini
attr iterationvars ""
attr iterationvarsd ""
attr iterationvarsf ""
attr measurement ""
attr network RGG
attr processid 52241
attr repetition 385
attr replication #385
attr resultdir results
attr runnumber 385
attr seedset 385
config network RGG
config seed-set 385
config num-rngs 1
config sim-time-limit 10s
config repeat 500
config **.node[*].xCor "uniform(0.0, 1.0, 0)"
config **.node[*].yCor "uniform(0.0, 1.0, 0)"
config *.numWalkers 2
config *.numNodes 50
config *.enableDuplication false
config *.rc 0.33

vector 0 RGG.node[49] visitedPerTimestep ETV
vector 1 RGG.node[34] visitedPerTimestep ETV
vector 2 RGG.node[8] visitedPerTimestep ETV
vector 3 RGG.node[45] visitedPerTimestep ETV
vector 4 RGG.node[25] visitedPerTimestep ETV
vector 5 RGG.node[48] visitedPerTimestep ETV
vector 6 RGG.node[16] visitedPerTimestep ETV
vector 7 RGG.node[39] visitedPerTimestep ETV
vector 8 RGG.node[2] visitedPerTimestep ETV
vector 9 RGG.node[5] visitedPerTimestep ETV
vector 10 RGG.node[37] visitedPerTimestep ETV
vector 11 RGG.node[27] visitedPerTimestep ETV
vector 12 RGG.node[40] visitedPerTimestep ETV
vector 13 RGG.node[10] visitedPerTimestep ETV
vector 14 RGG.node[42] visitedPerTimestep ETV
vector 15 RGG.node[36] visitedPerTimestep ETV
vector 16 RGG.node[4] visitedPerTimestep ETV
vector 17 RGG.node[23] visitedPerTimestep ETV
vector 18 RGG.node[29] visitedPerTimestep ETV
vector 19 RGG.node[33] visitedPerTimestep ETV
vector 20 RGG.node[43] visitedPerTimestep ETV
vector 21 RGG.node[11] visitedPerTimestep ETV
vector 22 RGG.node[15] visitedPerTimestep ETV
vector 23 RGG.node[38] visitedPerTimestep ETV
vector 24 RGG.node[18] visitedPerTimestep ETV
vector 25 RGG.node[0] visitedPerTimestep ETV
vector 26 RGG.node[9] visitedPerTimestep ETV
vector 27 RGG.node[7] visitedPerTimestep ETV
vector 28 RGG.node[17] visitedPerTimestep ETV
vector 29 RGG.node[21] visitedPerTimestep ETV
vector 30 RGG.node[3] visitedPerTimestep ETV
vector 31 RGG.node[41] visitedPerTimestep ETV
0	2	0	2
0	84	0	37
0	136	0	41
0	166	0	41
1	4	0	4
1	58	0	32
1	68	0	34
1	88	0	37
2	6	0	6
2	16	0	13
2	28	0	21
2	52	0	30
2	90	0	37
2	172	0	42
2	178	0	45
2	196	0	48
3	8	0	8
3	26	0	20
3	38	0	24
3	50	0	29
3	56	0	32
3	66	0	34
3	120	0	39
3	184	0	47
4	10	0	10
4	100	0	38
4	182	0	47
5	12	0	12
5	34	0	23
6	14	0	13
6	92	0	37
7	18	0	15
7	36	0	23
8	20	0	16
8	42	0	25
8	46	0	26
8	96	0	38
8	110	0	39
8	116	0	39
9	22	0	17
9	192	0	48
10	24	0	19
10	60	0	33
10	64	0	34
10	104	0	38
10	176	0	44
10	194	0	48
10	208	0	49
10	212	0	49
11	30	0	22
11	40	0	24
11	54	0	31
11	102	0	38
11	186	0	47
12	32	0	23
12	170	0	41
12	206	0	49
13	44	0	26
13	98	0	38
13	114	0	39
13	200	0	48
14	48	0	28
14	180	0	46
14	214	0	49
15	62	0	34
15	122	0	39
15	168	0	41
16	70	0	35
16	124	0	40
16	162	0	41
17	72	0	35
17	128	0	40
17	158	0	41
18	74	0	35
18	80	0	35
18	148	0	41
18	152	0	41
19	76	0	35
19	146	0	41
19	150	0	41
19	154	0	41
20	78	0	35
20	140	0	41
20	156	0	41
21	82	0	36
21	126	0	40
21	130	0	40
21	144	0	41
21	164	0	41
22	86	0	37
23	94	0	38
23	190	0	48
23	202	0	48
24	106	0	38
24	118	0	39
24	198	0	48
25	108	0	39
25	112	0	39
25	174	0	43
25	188	0	48
25	204	0	49
26	132	0	40
27	134	0	41
28	138	0	41
28	160	0	41
29	142	0	41
30	210	0	49
31	216	0	50

