version 3
run General-142-20250808-22:38:11-6615
attr configname General
attr datetime 20250808-22:38:11
attr datetimef 20250808-223811
attr experiment General
attr inifile omnetpp.ini
attr iterationvars ""
attr iterationvarsd ""
attr iterationvarsf ""
attr measurement ""
attr network RGG
attr processid 6615
attr repetition 142
attr replication #142
attr resultdir results
attr runnumber 142
attr seedset 142
config network RGG
config seed-set 142
config num-rngs 1
config sim-time-limit 10s
config repeat 500
config **.node[*].xCor "uniform(0.0, 1.0, 0)"
config **.node[*].yCor "uniform(0.0, 1.0, 0)"
config *.numWalkers 1
config *.numNodes 50
config *.enableDuplication true
config *.rc 0.4

vector 0 RGG.node[40] visitedPerTimestep ETV
vector 1 RGG.node[34] visitedPerTimestep ETV
vector 2 RGG.node[4] visitedPerTimestep ETV
vector 3 RGG.node[29] visitedPerTimestep ETV
vector 4 RGG.node[26] visitedPerTimestep ETV
vector 5 RGG.node[37] visitedPerTimestep ETV
vector 6 RGG.node[35] visitedPerTimestep ETV
vector 7 RGG.node[7] visitedPerTimestep ETV
vector 8 RGG.node[5] visitedPerTimestep ETV
vector 9 RGG.node[44] visitedPerTimestep ETV
vector 10 RGG.node[28] visitedPerTimestep ETV
vector 11 RGG.node[3] visitedPerTimestep ETV
vector 12 RGG.node[42] visitedPerTimestep ETV
vector 13 RGG.node[2] visitedPerTimestep ETV
vector 14 RGG.node[31] visitedPerTimestep ETV
vector 15 RGG.node[32] visitedPerTimestep ETV
vector 16 RGG.node[18] visitedPerTimestep ETV
vector 17 RGG.node[19] visitedPerTimestep ETV
vector 18 RGG.node[9] visitedPerTimestep ETV
vector 19 RGG.node[0] visitedPerTimestep ETV
vector 20 RGG.node[6] visitedPerTimestep ETV
vector 21 RGG.node[30] visitedPerTimestep ETV
vector 22 RGG.node[15] visitedPerTimestep ETV
vector 23 RGG.node[20] visitedPerTimestep ETV
vector 24 RGG.node[33] visitedPerTimestep ETV
vector 25 RGG.node[27] visitedPerTimestep ETV
vector 26 RGG.node[25] visitedPerTimestep ETV
vector 27 RGG.node[17] visitedPerTimestep ETV
vector 28 RGG.node[24] visitedPerTimestep ETV
vector 29 RGG.node[21] visitedPerTimestep ETV
vector 30 RGG.node[48] visitedPerTimestep ETV
vector 31 RGG.node[16] visitedPerTimestep ETV
vector 32 RGG.node[39] visitedPerTimestep ETV
vector 33 RGG.node[43] visitedPerTimestep ETV
vector 34 RGG.node[13] visitedPerTimestep ETV
vector 35 RGG.node[41] visitedPerTimestep ETV
vector 36 RGG.node[14] visitedPerTimestep ETV
vector 37 RGG.node[8] visitedPerTimestep ETV
vector 38 RGG.node[10] visitedPerTimestep ETV
vector 39 RGG.node[36] visitedPerTimestep ETV
vector 40 RGG.node[47] visitedPerTimestep ETV
vector 41 RGG.node[11] visitedPerTimestep ETV
vector 42 RGG.node[38] visitedPerTimestep ETV
vector 43 RGG.node[1] visitedPerTimestep ETV
0	1	0	1
0	11	0	10
0	144	0	43
1	2	0	2
2	3	0	3
3	4	0	4
3	60	0	35
3	162	0	46
3	274	0	49
4	5	0	5
4	118	0	43
4	246	0	48
5	6	0	6
5	186	0	47
5	234	0	48
5	290	0	49
6	7	0	7
6	34	0	29
6	45	0	30
6	64	0	37
6	84	0	37
6	250	0	48
6	266	0	49
7	8	0	8
7	58	0	34
8	9	0	9
8	148	0	44
9	10	0	10
10	12	0	11
10	126	0	43
10	130	0	43
11	13	0	12
11	46	0	30
11	136	0	43
12	14	0	13
12	19	0	17
12	210	0	47
13	15	0	14
13	44	0	30
13	72	0	37
13	76	0	37
13	92	0	38
13	106	0	42
13	258	0	48
14	16	0	15
14	49	0	31
14	140	0	43
15	17	0	16
15	43	0	30
15	100	0	41
15	138	0	43
15	222	0	48
16	18	0	17
16	42	0	30
16	47	0	30
17	20	0	18
17	37	0	29
17	80	0	37
17	90	0	38
17	206	0	47
18	21	0	19
18	54	0	32
18	78	0	37
18	82	0	37
18	98	0	40
18	110	0	42
18	214	0	47
18	262	0	49
19	22	0	20
19	38	0	29
19	40	0	29
19	116	0	43
19	198	0	47
19	282	0	49
20	23	0	21
20	120	0	43
20	124	0	43
20	132	0	43
21	24	0	22
21	35	0	29
21	122	0	43
21	194	0	47
22	25	0	23
23	26	0	24
23	242	0	48
24	27	0	25
24	29	0	26
24	39	0	29
24	190	0	47
24	238	0	48
24	270	0	49
24	286	0	49
25	28	0	26
25	36	0	29
25	86	0	37
25	134	0	43
25	202	0	47
26	30	0	27
26	32	0	28
27	31	0	28
28	33	0	29
28	62	0	36
29	41	0	30
29	52	0	31
29	108	0	42
29	170	0	47
29	178	0	47
29	254	0	48
30	48	0	31
30	50	0	31
30	94	0	38
31	56	0	33
31	66	0	37
31	154	0	45
32	68	0	37
33	70	0	37
33	102	0	41
34	74	0	37
35	88	0	38
35	230	0	48
36	96	0	40
37	104	0	42
37	128	0	43
37	142	0	43
38	112	0	42
38	158	0	46
38	166	0	47
38	226	0	48
39	114	0	43
39	218	0	47
40	146	0	44
41	150	0	45
42	174	0	47
42	182	0	47
42	278	0	49
43	294	0	50

