version 3
run General-317-20250729-21:37:03-52124
attr configname General
attr datetime 20250729-21:37:03
attr datetimef 20250729-213703
attr experiment General
attr inifile omnetpp.ini
attr iterationvars ""
attr iterationvarsd ""
attr iterationvarsf ""
attr measurement ""
attr network RGG
attr processid 52124
attr repetition 317
attr replication #317
attr resultdir results
attr runnumber 317
attr seedset 317
config network RGG
config seed-set 317
config num-rngs 1
config sim-time-limit 10s
config repeat 500
config **.node[*].xCor "uniform(0.0, 1.0, 0)"
config **.node[*].yCor "uniform(0.0, 1.0, 0)"
config *.numWalkers 2
config *.numNodes 50
config *.enableDuplication false
config *.rc 0.33

vector 0 RGG.node[36] visitedPerTimestep ETV
vector 1 RGG.node[44] visitedPerTimestep ETV
vector 2 RGG.node[7] visitedPerTimestep ETV
vector 3 RGG.node[42] visitedPerTimestep ETV
vector 4 RGG.node[17] visitedPerTimestep ETV
vector 5 RGG.node[13] visitedPerTimestep ETV
vector 6 RGG.node[19] visitedPerTimestep ETV
vector 7 RGG.node[5] visitedPerTimestep ETV
vector 8 RGG.node[32] visitedPerTimestep ETV
vector 9 RGG.node[9] visitedPerTimestep ETV
vector 10 RGG.node[29] visitedPerTimestep ETV
vector 11 RGG.node[8] visitedPerTimestep ETV
vector 12 RGG.node[20] visitedPerTimestep ETV
vector 13 RGG.node[4] visitedPerTimestep ETV
vector 14 RGG.node[35] visitedPerTimestep ETV
vector 15 RGG.node[47] visitedPerTimestep ETV
vector 16 RGG.node[45] visitedPerTimestep ETV
vector 17 RGG.node[48] visitedPerTimestep ETV
vector 18 RGG.node[39] visitedPerTimestep ETV
vector 19 RGG.node[46] visitedPerTimestep ETV
vector 20 RGG.node[12] visitedPerTimestep ETV
vector 21 RGG.node[6] visitedPerTimestep ETV
vector 22 RGG.node[14] visitedPerTimestep ETV
vector 23 RGG.node[18] visitedPerTimestep ETV
vector 24 RGG.node[0] visitedPerTimestep ETV
vector 25 RGG.node[38] visitedPerTimestep ETV
vector 26 RGG.node[43] visitedPerTimestep ETV
vector 27 RGG.node[27] visitedPerTimestep ETV
vector 28 RGG.node[40] visitedPerTimestep ETV
vector 29 RGG.node[24] visitedPerTimestep ETV
vector 30 RGG.node[11] visitedPerTimestep ETV
vector 31 RGG.node[31] visitedPerTimestep ETV
vector 32 RGG.node[41] visitedPerTimestep ETV
vector 33 RGG.node[3] visitedPerTimestep ETV
vector 34 RGG.node[1] visitedPerTimestep ETV
vector 35 RGG.node[22] visitedPerTimestep ETV
vector 36 RGG.node[15] visitedPerTimestep ETV
vector 37 RGG.node[28] visitedPerTimestep ETV
vector 38 RGG.node[21] visitedPerTimestep ETV
vector 39 RGG.node[25] visitedPerTimestep ETV
vector 40 RGG.node[26] visitedPerTimestep ETV
vector 41 RGG.node[33] visitedPerTimestep ETV
vector 42 RGG.node[37] visitedPerTimestep ETV
vector 43 RGG.node[2] visitedPerTimestep ETV
vector 44 RGG.node[30] visitedPerTimestep ETV
vector 45 RGG.node[34] visitedPerTimestep ETV
0	2	0	2
0	20	0	14
0	130	0	42
0	192	0	47
0	232	0	48
1	4	0	4
2	6	0	5
2	16	0	13
3	8	0	7
3	18	0	13
3	112	0	41
3	170	0	47
3	240	0	48
4	10	0	8
4	90	0	37
4	166	0	47
5	12	0	10
5	164	0	47
5	236	0	48
6	14	0	12
6	92	0	38
7	22	0	15
7	132	0	42
7	162	0	47
7	234	0	48
8	24	0	15
8	206	0	47
8	228	0	48
9	26	0	16
9	30	0	16
9	36	0	17
10	28	0	16
10	34	0	17
10	38	0	17
11	32	0	17
11	40	0	17
11	210	0	47
12	42	0	18
12	54	0	18
12	208	0	47
13	44	0	18
13	50	0	18
13	58	0	18
14	46	0	18
14	52	0	18
14	56	0	18
14	60	0	18
15	48	0	18
16	62	0	19
16	68	0	23
16	214	0	47
16	226	0	48
17	64	0	20
17	110	0	41
17	180	0	47
17	204	0	47
18	66	0	22
18	86	0	37
18	174	0	47
18	196	0	47
18	218	0	48
18	254	0	48
18	278	0	49
19	70	0	25
19	176	0	47
19	216	0	48
20	72	0	27
20	202	0	47
21	74	0	28
21	140	0	43
21	260	0	48
22	76	0	30
22	146	0	44
22	150	0	44
23	78	0	32
23	106	0	40
23	144	0	44
23	258	0	48
24	80	0	33
24	154	0	44
24	220	0	48
24	224	0	48
24	282	0	49
25	82	0	35
26	84	0	36
26	178	0	47
26	280	0	49
26	284	0	49
27	88	0	37
27	128	0	42
27	134	0	42
27	182	0	47
27	186	0	47
27	190	0	47
27	194	0	47
28	94	0	38
28	120	0	42
28	184	0	47
28	238	0	48
29	96	0	38
29	124	0	42
29	266	0	48
30	98	0	39
30	116	0	41
31	100	0	40
31	118	0	41
31	244	0	48
31	264	0	48
32	102	0	40
33	104	0	40
33	138	0	43
33	172	0	47
33	198	0	47
33	256	0	48
34	108	0	41
34	114	0	41
34	122	0	42
34	246	0	48
34	252	0	48
34	262	0	48
34	276	0	49
35	126	0	42
35	136	0	43
35	158	0	44
35	242	0	48
36	142	0	44
36	152	0	44
36	222	0	48
37	148	0	44
37	200	0	47
38	156	0	44
39	160	0	46
39	230	0	48
40	168	0	47
40	188	0	47
40	248	0	48
41	212	0	47
42	250	0	48
42	274	0	49
43	268	0	49
43	272	0	49
44	270	0	49
45	286	0	50

