version 3
run General-16-20250729-21:36:58-51580
attr configname General
attr datetime 20250729-21:36:58
attr datetimef 20250729-213658
attr experiment General
attr inifile omnetpp.ini
attr iterationvars ""
attr iterationvarsd ""
attr iterationvarsf ""
attr measurement ""
attr network RGG
attr processid 51580
attr repetition 16
attr replication #16
attr resultdir results
attr runnumber 16
attr seedset 16
config network RGG
config seed-set 16
config num-rngs 1
config sim-time-limit 10s
config repeat 500
config **.node[*].xCor "uniform(0.0, 1.0, 0)"
config **.node[*].yCor "uniform(0.0, 1.0, 0)"
config *.numWalkers 2
config *.numNodes 50
config *.enableDuplication false
config *.rc 0.33

vector 0 RGG.node[13] visitedPerTimestep ETV
vector 1 RGG.node[42] visitedPerTimestep ETV
vector 2 RGG.node[19] visitedPerTimestep ETV
vector 3 RGG.node[37] visitedPerTimestep ETV
vector 4 RGG.node[34] visitedPerTimestep ETV
vector 5 RGG.node[6] visitedPerTimestep ETV
vector 6 RGG.node[28] visitedPerTimestep ETV
vector 7 RGG.node[12] visitedPerTimestep ETV
vector 8 RGG.node[16] visitedPerTimestep ETV
vector 9 RGG.node[10] visitedPerTimestep ETV
vector 10 RGG.node[2] visitedPerTimestep ETV
vector 11 RGG.node[43] visitedPerTimestep ETV
vector 12 RGG.node[38] visitedPerTimestep ETV
vector 13 RGG.node[3] visitedPerTimestep ETV
vector 14 RGG.node[25] visitedPerTimestep ETV
vector 15 RGG.node[5] visitedPerTimestep ETV
vector 16 RGG.node[32] visitedPerTimestep ETV
vector 17 RGG.node[49] visitedPerTimestep ETV
vector 18 RGG.node[1] visitedPerTimestep ETV
vector 19 RGG.node[23] visitedPerTimestep ETV
vector 20 RGG.node[46] visitedPerTimestep ETV
vector 21 RGG.node[18] visitedPerTimestep ETV
vector 22 RGG.node[14] visitedPerTimestep ETV
vector 23 RGG.node[0] visitedPerTimestep ETV
vector 24 RGG.node[11] visitedPerTimestep ETV
vector 25 RGG.node[7] visitedPerTimestep ETV
vector 26 RGG.node[47] visitedPerTimestep ETV
vector 27 RGG.node[24] visitedPerTimestep ETV
vector 28 RGG.node[27] visitedPerTimestep ETV
vector 29 RGG.node[41] visitedPerTimestep ETV
vector 30 RGG.node[9] visitedPerTimestep ETV
vector 31 RGG.node[29] visitedPerTimestep ETV
vector 32 RGG.node[40] visitedPerTimestep ETV
vector 33 RGG.node[22] visitedPerTimestep ETV
vector 34 RGG.node[31] visitedPerTimestep ETV
vector 35 RGG.node[26] visitedPerTimestep ETV
vector 36 RGG.node[21] visitedPerTimestep ETV
vector 37 RGG.node[45] visitedPerTimestep ETV
vector 38 RGG.node[30] visitedPerTimestep ETV
vector 39 RGG.node[44] visitedPerTimestep ETV
vector 40 RGG.node[8] visitedPerTimestep ETV
vector 41 RGG.node[4] visitedPerTimestep ETV
vector 42 RGG.node[36] visitedPerTimestep ETV
vector 43 RGG.node[33] visitedPerTimestep ETV
vector 44 RGG.node[35] visitedPerTimestep ETV
0	2	0	1
0	218	0	47
1	4	0	3
1	206	0	45
1	220	0	47
1	226	0	47
2	6	0	5
2	70	0	34
2	76	0	36
2	216	0	47
3	8	0	7
3	88	0	39
3	108	0	42
3	114	0	42
3	120	0	43
3	248	0	49
4	10	0	9
4	72	0	35
4	110	0	42
4	228	0	47
5	12	0	11
5	86	0	39
5	90	0	40
5	246	0	49
5	254	0	49
6	14	0	12
6	80	0	38
6	112	0	42
7	16	0	13
7	84	0	38
7	92	0	40
7	106	0	42
7	122	0	43
7	164	0	44
7	242	0	49
7	258	0	49
7	268	0	49
8	18	0	15
8	162	0	44
8	166	0	44
8	256	0	49
9	20	0	17
9	24	0	19
9	126	0	43
9	154	0	44
9	176	0	44
9	264	0	49
10	22	0	19
10	98	0	42
10	136	0	44
10	156	0	44
10	260	0	49
11	26	0	20
12	28	0	21
12	34	0	22
12	46	0	29
12	56	0	29
12	152	0	44
12	178	0	44
12	192	0	44
13	30	0	21
13	186	0	44
13	190	0	44
14	32	0	22
14	36	0	23
15	38	0	24
16	40	0	25
17	42	0	27
17	50	0	29
17	194	0	44
18	44	0	29
18	138	0	44
18	148	0	44
18	170	0	44
19	48	0	29
19	174	0	44
20	52	0	29
20	180	0	44
20	188	0	44
21	54	0	29
21	200	0	44
22	58	0	29
22	184	0	44
23	60	0	29
23	196	0	44
24	62	0	29
24	182	0	44
24	202	0	44
25	64	0	31
25	214	0	47
25	222	0	47
26	66	0	32
26	74	0	36
27	68	0	33
28	78	0	37
28	240	0	49
28	252	0	49
29	82	0	38
29	118	0	43
30	94	0	41
30	104	0	42
30	116	0	42
31	96	0	42
31	102	0	42
31	130	0	44
31	134	0	44
32	100	0	42
32	144	0	44
32	158	0	44
32	262	0	49
33	124	0	43
33	132	0	44
33	168	0	44
33	172	0	44
33	266	0	49
33	270	0	50
34	128	0	44
34	160	0	44
35	140	0	44
35	146	0	44
36	142	0	44
37	150	0	44
38	198	0	44
39	204	0	45
39	212	0	47
39	236	0	48
40	208	0	46
40	224	0	47
41	210	0	47
41	234	0	48
42	230	0	47
42	250	0	49
43	232	0	48
44	238	0	49
44	244	0	49

