file 7166 1753814221                                            
version 3
run General-197-20250729-21:37:01-51924
attr configname General
attr datetime 20250729-21:37:01
attr datetimef 20250729-213701
attr experiment General
attr inifile omnetpp.ini
attr iterationvars ""
attr iterationvarsd ""
attr iterationvarsf ""
attr measurement ""
attr network RGG
attr processid 51924
attr repetition 197
attr replication #197
attr resultdir results
attr runnumber 197
attr seedset 197
config network RGG
config seed-set 197
config num-rngs 1
config sim-time-limit 10s
config repeat 500
config **.node[*].xCor "uniform(0.0, 1.0, 0)"
config **.node[*].yCor "uniform(0.0, 1.0, 0)"
config *.numWalkers 2
config *.numNodes 50
config *.enableDuplication false
config *.rc 0.33

vector 0 RGG.node[16] visitedPerTimestep ETV
vector 1 RGG.node[15] visitedPerTimestep ETV
vector 2 RGG.node[9] visitedPerTimestep ETV
vector 3 RGG.node[1] visitedPerTimestep ETV
vector 4 RGG.node[4] visitedPerTimestep ETV
vector 5 RGG.node[7] visitedPerTimestep ETV
vector 6 RGG.node[49] visitedPerTimestep ETV
vector 7 RGG.node[6] visitedPerTimestep ETV
vector 8 RGG.node[3] visitedPerTimestep ETV
vector 9 RGG.node[2] visitedPerTimestep ETV
vector 10 RGG.node[48] visitedPerTimestep ETV
vector 11 RGG.node[31] visitedPerTimestep ETV
vector 12 RGG.node[22] visitedPerTimestep ETV
vector 13 RGG.node[11] visitedPerTimestep ETV
vector 14 RGG.node[27] visitedPerTimestep ETV
vector 15 RGG.node[19] visitedPerTimestep ETV
vector 16 RGG.node[35] visitedPerTimestep ETV
vector 17 RGG.node[41] visitedPerTimestep ETV
vector 18 RGG.node[18] visitedPerTimestep ETV
vector 19 RGG.node[5] visitedPerTimestep ETV
vector 20 RGG.node[47] visitedPerTimestep ETV
vector 21 RGG.node[42] visitedPerTimestep ETV
vector 22 RGG.node[46] visitedPerTimestep ETV
vector 23 RGG.node[14] visitedPerTimestep ETV
vector 24 RGG.node[29] visitedPerTimestep ETV
vector 25 RGG.node[8] visitedPerTimestep ETV
vector 26 RGG.node[26] visitedPerTimestep ETV
vector 27 RGG.node[33] visitedPerTimestep ETV
vector 28 RGG.node[25] visitedPerTimestep ETV
vector 29 RGG.node[23] visitedPerTimestep ETV
vector 30 RGG.node[13] visitedPerTimestep ETV
vector 31 RGG.node[36] visitedPerTimestep ETV
vector 32 RGG.node[24] visitedPerTimestep ETV
vector 33 RGG.node[10] visitedPerTimestep ETV
vector 34 RGG.node[28] visitedPerTimestep ETV
vector 35 RGG.node[37] visitedPerTimestep ETV
vector 36 RGG.node[39] visitedPerTimestep ETV
vector 37 RGG.node[21] visitedPerTimestep ETV
vector 38 RGG.node[43] visitedPerTimestep ETV
vector 39 RGG.node[32] visitedPerTimestep ETV
vector 40 RGG.node[20] visitedPerTimestep ETV
vector 41 RGG.node[45] visitedPerTimestep ETV
vector 42 RGG.node[17] visitedPerTimestep ETV
vector 43 RGG.node[44] visitedPerTimestep ETV
vector 44 RGG.node[0] visitedPerTimestep ETV
vector 45 RGG.node[40] visitedPerTimestep ETV
vector 46 RGG.node[38] visitedPerTimestep ETV
vector 47 RGG.node[12] visitedPerTimestep ETV
vector 48 RGG.node[34] visitedPerTimestep ETV
0	2934 160 2 694 0 0 15 2 49 644 29802
1	3094 225 4 692 0 0 21 4 49 896 40874
2	3319 140 6 726 0 0 13 6 49 584 27888
3	3459 137 8 666 0 0 13 8 49 508 22404
4	3596 186 10 682 0 0 17 10 49 775 36691
5	3782 228 12 668 0 0 21 12 49 935 43303
6	4010 96 14 684 0 0 9 14 49 351 15159
7	4106 107 16 592 0 0 10 16 49 388 16928
8	4213 163 22 688 0 0 15 19 49 674 31286
9	4376 65 24 690 0 0 6 20 49 257 11637
10	4441 167 34 652 0 0 14 22 49 645 30353
11	4608 130 36 570 0 0 11 23 49 486 22142
12	4738 71 38 602 0 0 6 24 49 261 11813
13	4809 95 40 564 0 0 8 25 49 360 16664
14	4904 214 42 722 0 0 18 26 49 821 38133
15	5118 95 44 686 0 0 8 28 49 361 16631
16	5213 106 64 704 0 0 9 32 49 401 18219
17	5319 11 66 66 0 0 1 34 34 34 1156
18	5330 83 72 706 0 0 7 34 49 320 14794
19	5413 35 74 330 0 0 3 34 47 123 5129
20	5448 23 76 578 0 0 2 35 49 84 3626
21	5471 34 78 108 0 0 3 36 42 117 4581
22	5505 47 80 580 0 0 4 38 49 171 7373
23	5552 82 82 736 0 0 7 39 49 323 15015
24	5634 93 86 734 0 0 8 41 49 368 17048
25	5727 47 88 582 0 0 4 41 49 179 8055
26	5774 35 98 110 0 0 3 42 42 126 5292
27	5809 24 100 576 0 0 2 42 49 91 4165
28	5833 12 116 116 0 0 1 43 43 43 1849
29	5845 60 118 456 0 0 5 43 47 231 10685
30	5905 72 120 714 0 0 6 44 49 287 13749
31	5977 12 122 122 0 0 1 44 44 44 1936
32	5989 12 124 124 0 0 1 44 44 44 1936
33	6001 84 126 712 0 0 7 45 49 333 15855
34	6085 24 128 210 0 0 2 46 47 93 4325
35	6109 144 132 654 0 0 12 47 49 576 27660
36	6253 120 154 572 0 0 10 47 49 476 22666
37	6373 84 164 584 0 0 7 47 49 335 16039
38	6457 108 194 698 0 0 9 47 49 429 20457
39	6565 132 196 724 0 0 11 47 49 535 26027
40	6697 36 208 524 0 0 3 47 49 143 6819
41	6733 24 230 242 0 0 2 47 47 94 4418
42	6757 72 232 720 0 0 6 47 49 286 13638
43	6829 144 246 708 0 0 12 47 49 576 27660
44	6973 72 302 606 0 0 6 47 49 286 13638
45	7045 72 332 730 0 0 6 47 49 286 13638
46	7117 24 536 664 0 0 2 49 49 98 4802
47	7141 12 676 676 0 0 1 49 49 49 2401
48	7153 12 738 738 0 0 1 50 50 50 2500

