version 3
run General-213-20250808-22:38:12-6735
attr configname General
attr datetime 20250808-22:38:12
attr datetimef 20250808-223812
attr experiment General
attr inifile omnetpp.ini
attr iterationvars ""
attr iterationvarsd ""
attr iterationvarsf ""
attr measurement ""
attr network RGG
attr processid 6735
attr repetition 213
attr replication #213
attr resultdir results
attr runnumber 213
attr seedset 213
config network RGG
config seed-set 213
config num-rngs 1
config sim-time-limit 10s
config repeat 500
config **.node[*].xCor "uniform(0.0, 1.0, 0)"
config **.node[*].yCor "uniform(0.0, 1.0, 0)"
config *.numWalkers 1
config *.numNodes 50
config *.enableDuplication true
config *.rc 0.4

vector 0 RGG.node[12] visitedPerTimestep ETV
vector 1 RGG.node[10] visitedPerTimestep ETV
vector 2 RGG.node[32] visitedPerTimestep ETV
vector 3 RGG.node[40] visitedPerTimestep ETV
vector 4 RGG.node[17] visitedPerTimestep ETV
vector 5 RGG.node[19] visitedPerTimestep ETV
vector 6 RGG.node[7] visitedPerTimestep ETV
vector 7 RGG.node[47] visitedPerTimestep ETV
vector 8 RGG.node[26] visitedPerTimestep ETV
vector 9 RGG.node[45] visitedPerTimestep ETV
vector 10 RGG.node[21] visitedPerTimestep ETV
vector 11 RGG.node[43] visitedPerTimestep ETV
vector 12 RGG.node[42] visitedPerTimestep ETV
vector 13 RGG.node[18] visitedPerTimestep ETV
vector 14 RGG.node[6] visitedPerTimestep ETV
vector 15 RGG.node[0] visitedPerTimestep ETV
vector 16 RGG.node[41] visitedPerTimestep ETV
vector 17 RGG.node[3] visitedPerTimestep ETV
vector 18 RGG.node[37] visitedPerTimestep ETV
vector 19 RGG.node[1] visitedPerTimestep ETV
vector 20 RGG.node[28] visitedPerTimestep ETV
vector 21 RGG.node[27] visitedPerTimestep ETV
vector 22 RGG.node[44] visitedPerTimestep ETV
vector 23 RGG.node[5] visitedPerTimestep ETV
vector 24 RGG.node[14] visitedPerTimestep ETV
vector 25 RGG.node[46] visitedPerTimestep ETV
vector 26 RGG.node[48] visitedPerTimestep ETV
vector 27 RGG.node[4] visitedPerTimestep ETV
vector 28 RGG.node[16] visitedPerTimestep ETV
vector 29 RGG.node[35] visitedPerTimestep ETV
vector 30 RGG.node[34] visitedPerTimestep ETV
vector 31 RGG.node[33] visitedPerTimestep ETV
vector 32 RGG.node[13] visitedPerTimestep ETV
vector 33 RGG.node[49] visitedPerTimestep ETV
vector 34 RGG.node[29] visitedPerTimestep ETV
vector 35 RGG.node[11] visitedPerTimestep ETV
vector 36 RGG.node[39] visitedPerTimestep ETV
vector 37 RGG.node[8] visitedPerTimestep ETV
vector 38 RGG.node[15] visitedPerTimestep ETV
vector 39 RGG.node[20] visitedPerTimestep ETV
vector 40 RGG.node[9] visitedPerTimestep ETV
vector 41 RGG.node[36] visitedPerTimestep ETV
vector 42 RGG.node[38] visitedPerTimestep ETV
0	1	0	1
0	246	0	47
0	338	0	49
1	2	0	2
1	15	0	12
1	29	0	17
1	48	0	28
1	138	0	44
1	250	0	47
1	346	0	49
2	3	0	3
2	16	0	12
2	64	0	32
2	108	0	42
2	158	0	45
2	190	0	46
3	4	0	4
3	6	0	5
3	14	0	12
3	92	0	38
3	112	0	43
3	422	0	49
4	5	0	5
4	26	0	17
5	7	0	6
5	30	0	17
5	46	0	28
5	258	0	47
5	310	0	49
5	326	0	49
6	8	0	7
6	96	0	39
6	226	0	46
7	9	0	8
7	44	0	28
7	52	0	28
7	66	0	32
7	104	0	41
7	140	0	44
7	146	0	44
7	150	0	44
7	302	0	47
7	322	0	49
7	438	0	49
8	10	0	9
8	18	0	12
8	45	0	28
8	50	0	28
8	132	0	44
8	144	0	44
8	162	0	45
8	170	0	45
8	178	0	45
8	350	0	49
8	446	0	50
9	11	0	10
9	21	0	14
9	266	0	47
9	294	0	47
10	12	0	11
10	17	0	12
10	28	0	17
10	58	0	31
10	72	0	34
10	118	0	43
11	13	0	12
11	31	0	17
11	68	0	33
11	186	0	46
11	278	0	47
11	330	0	49
12	19	0	13
12	47	0	28
12	49	0	28
12	110	0	42
12	182	0	45
12	222	0	46
12	290	0	47
12	342	0	49
12	430	0	49
13	20	0	14
13	23	0	15
13	27	0	17
13	62	0	31
13	102	0	41
13	154	0	44
13	198	0	46
13	270	0	47
14	22	0	15
14	43	0	28
14	134	0	44
14	254	0	47
15	24	0	16
15	120	0	43
15	174	0	45
15	206	0	46
15	274	0	47
15	286	0	47
16	25	0	17
16	100	0	41
17	32	0	18
18	33	0	19
19	34	0	20
20	35	0	21
20	406	0	49
21	36	0	22
22	37	0	23
23	38	0	24
24	39	0	25
24	76	0	35
25	40	0	26
25	366	0	49
26	41	0	27
26	82	0	36
26	382	0	49
26	398	0	49
27	42	0	28
27	78	0	35
28	54	0	29
28	136	0	44
28	166	0	45
28	210	0	46
28	230	0	46
28	298	0	47
28	314	0	49
29	56	0	30
29	60	0	31
29	128	0	44
29	234	0	46
29	334	0	49
30	70	0	34
30	74	0	34
30	84	0	36
31	80	0	36
31	88	0	36
31	374	0	49
32	86	0	36
33	90	0	37
33	390	0	49
34	94	0	39
34	122	0	43
34	130	0	44
34	148	0	44
34	202	0	46
34	214	0	46
34	282	0	47
35	98	0	40
35	238	0	46
36	106	0	42
36	114	0	43
36	306	0	48
37	116	0	43
37	142	0	44
37	318	0	49
38	124	0	44
39	126	0	44
40	194	0	46
40	218	0	46
40	262	0	47
41	242	0	47
42	358	0	49
42	414	0	49

