version 3
run General-417-20250729-21:37:06-52297
attr configname General
attr datetime 20250729-21:37:06
attr datetimef 20250729-213706
attr experiment General
attr inifile omnetpp.ini
attr iterationvars ""
attr iterationvarsd ""
attr iterationvarsf ""
attr measurement ""
attr network RGG
attr processid 52297
attr repetition 417
attr replication #417
attr resultdir results
attr runnumber 417
attr seedset 417
config network RGG
config seed-set 417
config num-rngs 1
config sim-time-limit 10s
config repeat 500
config **.node[*].xCor "uniform(0.0, 1.0, 0)"
config **.node[*].yCor "uniform(0.0, 1.0, 0)"
config *.numWalkers 2
config *.numNodes 50
config *.enableDuplication false
config *.rc 0.33

vector 0 RGG.node[42] visitedPerTimestep ETV
vector 1 RGG.node[18] visitedPerTimestep ETV
vector 2 RGG.node[38] visitedPerTimestep ETV
vector 3 RGG.node[41] visitedPerTimestep ETV
vector 4 RGG.node[34] visitedPerTimestep ETV
vector 5 RGG.node[48] visitedPerTimestep ETV
vector 6 RGG.node[13] visitedPerTimestep ETV
vector 7 RGG.node[7] visitedPerTimestep ETV
vector 8 RGG.node[32] visitedPerTimestep ETV
vector 9 RGG.node[46] visitedPerTimestep ETV
vector 10 RGG.node[9] visitedPerTimestep ETV
vector 11 RGG.node[29] visitedPerTimestep ETV
vector 12 RGG.node[11] visitedPerTimestep ETV
vector 13 RGG.node[31] visitedPerTimestep ETV
vector 14 RGG.node[5] visitedPerTimestep ETV
vector 15 RGG.node[25] visitedPerTimestep ETV
vector 16 RGG.node[49] visitedPerTimestep ETV
vector 17 RGG.node[8] visitedPerTimestep ETV
vector 18 RGG.node[23] visitedPerTimestep ETV
vector 19 RGG.node[20] visitedPerTimestep ETV
vector 20 RGG.node[44] visitedPerTimestep ETV
vector 21 RGG.node[15] visitedPerTimestep ETV
vector 22 RGG.node[16] visitedPerTimestep ETV
vector 23 RGG.node[43] visitedPerTimestep ETV
vector 24 RGG.node[39] visitedPerTimestep ETV
vector 25 RGG.node[14] visitedPerTimestep ETV
vector 26 RGG.node[45] visitedPerTimestep ETV
vector 27 RGG.node[27] visitedPerTimestep ETV
vector 28 RGG.node[10] visitedPerTimestep ETV
vector 29 RGG.node[3] visitedPerTimestep ETV
vector 30 RGG.node[12] visitedPerTimestep ETV
vector 31 RGG.node[19] visitedPerTimestep ETV
vector 32 RGG.node[1] visitedPerTimestep ETV
vector 33 RGG.node[21] visitedPerTimestep ETV
vector 34 RGG.node[37] visitedPerTimestep ETV
vector 35 RGG.node[0] visitedPerTimestep ETV
vector 36 RGG.node[17] visitedPerTimestep ETV
vector 37 RGG.node[35] visitedPerTimestep ETV
vector 38 RGG.node[30] visitedPerTimestep ETV
vector 39 RGG.node[26] visitedPerTimestep ETV
vector 40 RGG.node[33] visitedPerTimestep ETV
vector 41 RGG.node[6] visitedPerTimestep ETV
vector 42 RGG.node[2] visitedPerTimestep ETV
vector 43 RGG.node[47] visitedPerTimestep ETV
vector 44 RGG.node[28] visitedPerTimestep ETV
vector 45 RGG.node[4] visitedPerTimestep ETV
0	2	0	2
0	46	0	23
0	170	0	45
0	198	0	47
0	258	0	48
0	312	0	49
0	354	0	49
0	450	0	49
0	472	0	49
1	4	0	4
1	30	0	18
1	172	0	45
1	176	0	45
1	256	0	48
1	286	0	49
1	356	0	49
1	408	0	49
1	448	0	49
2	6	0	6
2	52	0	26
2	62	0	27
2	200	0	47
2	204	0	47
2	224	0	48
3	8	0	6
3	28	0	18
3	48	0	24
3	154	0	45
3	160	0	45
3	240	0	48
4	10	0	7
4	54	0	26
4	196	0	46
5	12	0	8
5	164	0	45
5	214	0	47
5	232	0	48
6	14	0	10
6	210	0	47
6	248	0	48
7	16	0	12
7	22	0	15
7	56	0	27
7	66	0	27
7	168	0	45
7	202	0	47
7	212	0	47
7	222	0	48
8	18	0	13
8	64	0	27
8	72	0	28
8	150	0	45
8	156	0	45
8	242	0	48
9	20	0	14
9	58	0	27
9	152	0	45
9	228	0	48
10	24	0	17
10	166	0	45
11	26	0	18
11	244	0	48
12	32	0	19
12	42	0	22
12	132	0	44
12	304	0	49
12	372	0	49
12	406	0	49
12	410	0	49
13	34	0	20
13	38	0	21
13	98	0	43
13	116	0	43
13	120	0	43
13	126	0	44
13	134	0	44
13	266	0	48
13	346	0	49
13	426	0	49
14	36	0	21
14	92	0	43
14	96	0	43
14	102	0	43
14	106	0	43
14	112	0	43
15	40	0	22
15	174	0	45
15	288	0	49
15	334	0	49
15	352	0	49
15	414	0	49
15	424	0	49
16	44	0	23
16	86	0	39
16	314	0	49
16	336	0	49
16	348	0	49
16	368	0	49
16	480	0	49
17	50	0	25
17	70	0	28
17	162	0	45
17	206	0	47
18	60	0	27
18	158	0	45
18	324	0	49
18	420	0	49
18	458	0	49
19	68	0	27
19	208	0	47
19	238	0	48
19	250	0	48
19	418	0	49
20	74	0	30
20	186	0	45
20	194	0	46
20	452	0	49
21	76	0	32
21	320	0	49
21	328	0	49
22	78	0	34
22	180	0	45
23	80	0	35
23	192	0	45
23	308	0	49
23	318	0	49
23	330	0	49
23	474	0	49
24	82	0	37
24	136	0	44
24	272	0	48
24	284	0	49
24	306	0	49
24	366	0	49
24	370	0	49
24	440	0	49
24	444	0	49
24	464	0	49
24	478	0	49
25	84	0	38
25	138	0	44
25	260	0	48
25	264	0	48
25	274	0	48
25	332	0	49
25	340	0	49
25	344	0	49
25	462	0	49
25	470	0	49
25	476	0	49
26	88	0	41
26	94	0	43
26	104	0	43
26	110	0	43
26	114	0	43
26	128	0	44
26	268	0	48
26	376	0	49
26	434	0	49
27	90	0	42
27	100	0	43
27	108	0	43
27	362	0	49
27	436	0	49
28	118	0	43
28	124	0	44
28	394	0	49
28	400	0	49
28	404	0	49
28	430	0	49
29	122	0	44
29	130	0	44
29	270	0	48
29	290	0	49
29	350	0	49
29	374	0	49
29	378	0	49
29	396	0	49
29	412	0	49
29	428	0	49
29	432	0	49
29	482	0	49
30	140	0	44
30	178	0	45
30	280	0	49
30	322	0	49
30	326	0	49
30	342	0	49
30	454	0	49
31	142	0	44
31	146	0	45
31	226	0	48
31	262	0	48
31	276	0	48
31	282	0	49
31	442	0	49
31	460	0	49
32	144	0	45
32	182	0	45
32	360	0	49
32	364	0	49
32	438	0	49
32	468	0	49
33	148	0	45
33	190	0	45
33	278	0	49
33	456	0	49
34	184	0	45
34	188	0	45
34	310	0	49
34	316	0	49
34	338	0	49
34	358	0	49
34	446	0	49
34	466	0	49
35	216	0	48
36	218	0	48
37	220	0	48
37	234	0	48
37	252	0	48
38	230	0	48
38	236	0	48
38	254	0	48
38	416	0	49
38	422	0	49
39	246	0	48
40	292	0	49
40	380	0	49
40	384	0	49
40	398	0	49
41	294	0	49
41	298	0	49
42	296	0	49
42	486	0	49
43	300	0	49
43	390	0	49
43	488	0	49
44	302	0	49
44	388	0	49
44	392	0	49
44	402	0	49
44	484	0	49
44	490	0	49
44	494	0	50
45	382	0	49
45	386	0	49
45	492	0	49

