version 3
run General-490-20250808-22:38:15-7198
attr configname General
attr datetime 20250808-22:38:15
attr datetimef 20250808-223815
attr experiment General
attr inifile omnetpp.ini
attr iterationvars ""
attr iterationvarsd ""
attr iterationvarsf ""
attr measurement ""
attr network RGG
attr processid 7198
attr repetition 490
attr replication #490
attr resultdir results
attr runnumber 490
attr seedset 490
config network RGG
config seed-set 490
config num-rngs 1
config sim-time-limit 10s
config repeat 500
config **.node[*].xCor "uniform(0.0, 1.0, 0)"
config **.node[*].yCor "uniform(0.0, 1.0, 0)"
config *.numWalkers 1
config *.numNodes 50
config *.enableDuplication true
config *.rc 0.4

vector 0 RGG.node[32] visitedPerTimestep ETV
vector 1 RGG.node[20] visitedPerTimestep ETV
vector 2 RGG.node[9] visitedPerTimestep ETV
vector 3 RGG.node[2] visitedPerTimestep ETV
vector 4 RGG.node[26] visitedPerTimestep ETV
vector 5 RGG.node[1] visitedPerTimestep ETV
vector 6 RGG.node[25] visitedPerTimestep ETV
vector 7 RGG.node[37] visitedPerTimestep ETV
vector 8 RGG.node[24] visitedPerTimestep ETV
vector 9 RGG.node[33] visitedPerTimestep ETV
vector 10 RGG.node[31] visitedPerTimestep ETV
vector 11 RGG.node[45] visitedPerTimestep ETV
vector 12 RGG.node[27] visitedPerTimestep ETV
vector 13 RGG.node[17] visitedPerTimestep ETV
vector 14 RGG.node[15] visitedPerTimestep ETV
vector 15 RGG.node[44] visitedPerTimestep ETV
vector 16 RGG.node[46] visitedPerTimestep ETV
vector 17 RGG.node[29] visitedPerTimestep ETV
vector 18 RGG.node[43] visitedPerTimestep ETV
vector 19 RGG.node[47] visitedPerTimestep ETV
vector 20 RGG.node[22] visitedPerTimestep ETV
vector 21 RGG.node[48] visitedPerTimestep ETV
vector 22 RGG.node[3] visitedPerTimestep ETV
vector 23 RGG.node[12] visitedPerTimestep ETV
vector 24 RGG.node[23] visitedPerTimestep ETV
vector 25 RGG.node[36] visitedPerTimestep ETV
vector 26 RGG.node[7] visitedPerTimestep ETV
vector 27 RGG.node[38] visitedPerTimestep ETV
vector 28 RGG.node[8] visitedPerTimestep ETV
vector 29 RGG.node[5] visitedPerTimestep ETV
vector 30 RGG.node[21] visitedPerTimestep ETV
vector 31 RGG.node[39] visitedPerTimestep ETV
vector 32 RGG.node[16] visitedPerTimestep ETV
vector 33 RGG.node[10] visitedPerTimestep ETV
vector 34 RGG.node[14] visitedPerTimestep ETV
vector 35 RGG.node[18] visitedPerTimestep ETV
vector 36 RGG.node[42] visitedPerTimestep ETV
vector 37 RGG.node[0] visitedPerTimestep ETV
vector 38 RGG.node[28] visitedPerTimestep ETV
vector 39 RGG.node[40] visitedPerTimestep ETV
vector 40 RGG.node[35] visitedPerTimestep ETV
vector 41 RGG.node[19] visitedPerTimestep ETV
vector 42 RGG.node[11] visitedPerTimestep ETV
vector 43 RGG.node[4] visitedPerTimestep ETV
vector 44 RGG.node[34] visitedPerTimestep ETV
0	1	0	1
0	21	0	15
0	132	0	43
0	262	0	47
1	2	0	2
2	3	0	3
2	8	0	7
3	4	0	4
3	10	0	8
4	5	0	5
5	6	0	6
5	35	0	23
5	40	0	24
5	44	0	24
6	7	0	7
6	25	0	17
6	39	0	24
6	366	0	50
7	9	0	8
7	24	0	17
7	28	0	17
7	47	0	25
7	342	0	49
7	350	0	49
8	11	0	9
8	14	0	11
9	12	0	10
9	41	0	24
9	82	0	37
10	13	0	11
10	42	0	24
10	338	0	49
11	15	0	12
11	26	0	17
11	36	0	23
11	38	0	24
11	43	0	24
12	16	0	13
12	18	0	14
12	20	0	15
12	166	0	46
13	17	0	14
13	27	0	17
13	274	0	47
13	358	0	49
14	19	0	15
14	49	0	26
15	22	0	16
15	140	0	43
15	234	0	47
16	23	0	17
16	54	0	29
16	88	0	37
16	104	0	40
16	138	0	43
16	238	0	47
17	29	0	18
17	124	0	40
17	150	0	46
17	194	0	47
17	202	0	47
17	254	0	47
17	290	0	47
18	30	0	19
18	78	0	37
18	86	0	37
18	90	0	37
18	120	0	40
18	154	0	46
18	174	0	47
18	294	0	47
18	306	0	49
19	31	0	20
20	32	0	21
20	96	0	39
20	100	0	39
20	110	0	40
20	114	0	40
20	126	0	41
20	158	0	46
20	190	0	47
21	33	0	22
21	94	0	38
21	118	0	40
21	278	0	47
21	302	0	49
21	314	0	49
21	322	0	49
22	34	0	23
22	45	0	24
23	37	0	24
23	80	0	37
23	84	0	37
24	46	0	25
24	76	0	37
24	330	0	49
25	48	0	26
25	72	0	37
25	246	0	47
25	346	0	49
26	50	0	27
26	136	0	43
26	266	0	47
27	52	0	28
27	68	0	35
28	56	0	30
28	106	0	40
28	146	0	44
28	226	0	47
28	282	0	47
29	58	0	31
29	182	0	47
30	60	0	32
30	108	0	40
30	144	0	43
31	62	0	33
31	66	0	35
31	92	0	37
31	98	0	39
31	116	0	40
31	178	0	47
32	64	0	34
32	198	0	47
33	70	0	37
33	186	0	47
33	258	0	47
34	74	0	37
34	170	0	47
34	270	0	47
35	102	0	40
35	130	0	43
35	142	0	43
35	210	0	47
35	250	0	47
36	112	0	40
37	122	0	40
37	128	0	42
37	134	0	43
37	162	0	46
37	218	0	47
38	148	0	45
38	230	0	47
39	206	0	47
39	242	0	47
40	214	0	47
40	222	0	47
40	286	0	47
41	298	0	48
41	326	0	49
42	310	0	49
43	318	0	49
44	334	0	49

