version 3
run General-359-20250808-22:38:14-6975
attr configname General
attr datetime 20250808-22:38:14
attr datetimef 20250808-223814
attr experiment General
attr inifile omnetpp.ini
attr iterationvars ""
attr iterationvarsd ""
attr iterationvarsf ""
attr measurement ""
attr network RGG
attr processid 6975
attr repetition 359
attr replication #359
attr resultdir results
attr runnumber 359
attr seedset 359
config network RGG
config seed-set 359
config num-rngs 1
config sim-time-limit 10s
config repeat 500
config **.node[*].xCor "uniform(0.0, 1.0, 0)"
config **.node[*].yCor "uniform(0.0, 1.0, 0)"
config *.numWalkers 1
config *.numNodes 50
config *.enableDuplication true
config *.rc 0.4

vector 0 RGG.node[19] visitedPerTimestep ETV
vector 1 RGG.node[41] visitedPerTimestep ETV
vector 2 RGG.node[37] visitedPerTimestep ETV
vector 3 RGG.node[1] visitedPerTimestep ETV
vector 4 RGG.node[42] visitedPerTimestep ETV
vector 5 RGG.node[35] visitedPerTimestep ETV
vector 6 RGG.node[32] visitedPerTimestep ETV
vector 7 RGG.node[3] visitedPerTimestep ETV
vector 8 RGG.node[15] visitedPerTimestep ETV
vector 9 RGG.node[40] visitedPerTimestep ETV
vector 10 RGG.node[12] visitedPerTimestep ETV
vector 11 RGG.node[0] visitedPerTimestep ETV
vector 12 RGG.node[23] visitedPerTimestep ETV
vector 13 RGG.node[43] visitedPerTimestep ETV
vector 14 RGG.node[6] visitedPerTimestep ETV
vector 15 RGG.node[46] visitedPerTimestep ETV
vector 16 RGG.node[5] visitedPerTimestep ETV
vector 17 RGG.node[34] visitedPerTimestep ETV
vector 18 RGG.node[4] visitedPerTimestep ETV
vector 19 RGG.node[33] visitedPerTimestep ETV
vector 20 RGG.node[7] visitedPerTimestep ETV
vector 21 RGG.node[26] visitedPerTimestep ETV
vector 22 RGG.node[13] visitedPerTimestep ETV
vector 23 RGG.node[38] visitedPerTimestep ETV
vector 24 RGG.node[31] visitedPerTimestep ETV
vector 25 RGG.node[20] visitedPerTimestep ETV
vector 26 RGG.node[2] visitedPerTimestep ETV
vector 27 RGG.node[47] visitedPerTimestep ETV
vector 28 RGG.node[21] visitedPerTimestep ETV
vector 29 RGG.node[29] visitedPerTimestep ETV
vector 30 RGG.node[22] visitedPerTimestep ETV
vector 31 RGG.node[16] visitedPerTimestep ETV
vector 32 RGG.node[25] visitedPerTimestep ETV
vector 33 RGG.node[10] visitedPerTimestep ETV
vector 34 RGG.node[28] visitedPerTimestep ETV
vector 35 RGG.node[18] visitedPerTimestep ETV
vector 36 RGG.node[9] visitedPerTimestep ETV
vector 37 RGG.node[48] visitedPerTimestep ETV
vector 38 RGG.node[11] visitedPerTimestep ETV
vector 39 RGG.node[24] visitedPerTimestep ETV
vector 40 RGG.node[8] visitedPerTimestep ETV
0	1	0	1
0	120	0	45
0	124	0	45
1	2	0	2
1	36	0	22
1	38	0	23
1	66	0	35
1	96	0	39
2	3	0	3
2	14	0	11
2	138	0	46
2	210	0	50
3	4	0	4
3	43	0	23
3	88	0	39
3	158	0	46
4	5	0	5
4	11	0	9
4	154	0	46
5	6	0	6
5	8	0	7
5	24	0	16
5	90	0	39
5	148	0	46
6	7	0	7
6	19	0	14
6	27	0	16
6	58	0	32
6	92	0	39
7	9	0	8
7	21	0	14
7	54	0	30
7	178	0	48
8	10	0	9
8	15	0	11
8	206	0	49
9	12	0	10
10	13	0	11
10	42	0	23
11	16	0	12
11	26	0	16
12	17	0	13
12	25	0	16
12	47	0	24
12	60	0	33
12	102	0	39
12	146	0	46
12	162	0	46
13	18	0	14
13	20	0	14
13	78	0	39
13	100	0	39
14	22	0	15
14	30	0	18
14	39	0	23
14	136	0	45
14	144	0	46
14	150	0	46
15	23	0	16
15	45	0	24
16	28	0	17
16	46	0	24
16	104	0	39
17	29	0	18
17	80	0	39
17	84	0	39
18	31	0	19
18	76	0	39
18	142	0	46
18	182	0	48
19	32	0	20
20	33	0	21
20	35	0	22
20	41	0	23
21	34	0	22
21	112	0	43
21	116	0	45
22	37	0	23
22	40	0	23
23	44	0	24
23	106	0	40
23	166	0	46
24	48	0	25
25	49	0	26
25	170	0	47
26	50	0	27
26	202	0	49
27	52	0	29
27	68	0	35
27	108	0	41
27	198	0	49
28	56	0	31
28	86	0	39
28	94	0	39
28	98	0	39
29	62	0	34
30	64	0	35
30	122	0	45
30	132	0	45
31	70	0	36
31	74	0	39
31	194	0	49
32	72	0	38
33	82	0	39
34	110	0	42
34	118	0	45
34	128	0	45
35	114	0	45
36	126	0	45
37	130	0	45
38	134	0	45
39	140	0	46
39	186	0	48
40	174	0	48
40	190	0	49

