file 4270 1754681890                                            
version 3
run General-11-20250808-22:38:10-6361
attr configname General
attr datetime 20250808-22:38:10
attr datetimef 20250808-223810
attr experiment General
attr inifile omnetpp.ini
attr iterationvars ""
attr iterationvarsd ""
attr iterationvarsf ""
attr measurement ""
attr network RGG
attr processid 6361
attr repetition 11
attr replication #11
attr resultdir results
attr runnumber 11
attr seedset 11
config network RGG
config seed-set 11
config num-rngs 1
config sim-time-limit 10s
config repeat 500
config **.node[*].xCor "uniform(0.0, 1.0, 0)"
config **.node[*].yCor "uniform(0.0, 1.0, 0)"
config *.numWalkers 1
config *.numNodes 50
config *.enableDuplication true
config *.rc 0.4

vector 0 RGG.node[27] visitedPerTimestep ETV
vector 1 RGG.node[31] visitedPerTimestep ETV
vector 2 RGG.node[12] visitedPerTimestep ETV
vector 3 RGG.node[13] visitedPerTimestep ETV
vector 4 RGG.node[3] visitedPerTimestep ETV
vector 5 RGG.node[36] visitedPerTimestep ETV
vector 6 RGG.node[26] visitedPerTimestep ETV
vector 7 RGG.node[15] visitedPerTimestep ETV
vector 8 RGG.node[20] visitedPerTimestep ETV
vector 9 RGG.node[9] visitedPerTimestep ETV
vector 10 RGG.node[48] visitedPerTimestep ETV
vector 11 RGG.node[32] visitedPerTimestep ETV
vector 12 RGG.node[49] visitedPerTimestep ETV
vector 13 RGG.node[41] visitedPerTimestep ETV
vector 14 RGG.node[43] visitedPerTimestep ETV
vector 15 RGG.node[2] visitedPerTimestep ETV
vector 16 RGG.node[19] visitedPerTimestep ETV
vector 17 RGG.node[25] visitedPerTimestep ETV
vector 18 RGG.node[11] visitedPerTimestep ETV
vector 19 RGG.node[24] visitedPerTimestep ETV
vector 20 RGG.node[18] visitedPerTimestep ETV
vector 21 RGG.node[21] visitedPerTimestep ETV
vector 22 RGG.node[8] visitedPerTimestep ETV
vector 23 RGG.node[33] visitedPerTimestep ETV
vector 24 RGG.node[4] visitedPerTimestep ETV
vector 25 RGG.node[29] visitedPerTimestep ETV
vector 26 RGG.node[40] visitedPerTimestep ETV
vector 27 RGG.node[22] visitedPerTimestep ETV
vector 28 RGG.node[42] visitedPerTimestep ETV
vector 29 RGG.node[23] visitedPerTimestep ETV
vector 30 RGG.node[0] visitedPerTimestep ETV
vector 31 RGG.node[34] visitedPerTimestep ETV
vector 32 RGG.node[39] visitedPerTimestep ETV
vector 33 RGG.node[5] visitedPerTimestep ETV
vector 34 RGG.node[44] visitedPerTimestep ETV
vector 35 RGG.node[30] visitedPerTimestep ETV
vector 36 RGG.node[1] visitedPerTimestep ETV
vector 37 RGG.node[14] visitedPerTimestep ETV
vector 38 RGG.node[6] visitedPerTimestep ETV
vector 39 RGG.node[17] visitedPerTimestep ETV
vector 40 RGG.node[45] visitedPerTimestep ETV
vector 41 RGG.node[37] visitedPerTimestep ETV
vector 42 RGG.node[7] visitedPerTimestep ETV
vector 43 RGG.node[28] visitedPerTimestep ETV
0	2694 40 1 278 0 0 4 1 48 110 4778
1	2734 16 2 4 0 0 2 2 3 5 13
2	2750 29 3 154 0 0 3 3 47 61 2339
3	2779 16 5 7 0 0 2 4 5 9 41
4	2795 8 6 6 0 0 1 5 5 5 25
5	2803 18 8 19 0 0 2 6 12 18 180
6	2821 28 9 15 0 0 3 7 11 28 270
7	2849 29 10 35 0 0 3 8 21 40 626
8	2878 9 11 11 0 0 1 9 9 9 81
9	2887 20 12 20 0 0 2 10 12 22 244
10	2907 11 14 14 0 0 1 11 11 11 121
11	2918 23 18 158 0 0 2 12 47 59 2353
12	2941 34 21 144 0 0 3 13 47 81 2819
13	2975 57 23 238 0 0 5 14 48 164 6504
14	3032 80 24 294 0 0 7 15 48 242 9462
15	3112 69 25 290 0 0 6 16 48 224 9224
16	3181 114 27 242 0 0 10 17 48 366 14320
17	3295 70 29 258 0 0 6 18 48 231 9729
18	3365 70 30 306 0 0 6 19 48 218 8788
19	3435 23 31 130 0 0 2 20 45 65 2425
20	3458 35 33 140 0 0 3 21 46 112 4582
21	3493 11 36 36 0 0 1 22 22 22 484
22	3504 11 37 37 0 0 1 23 23 23 529
23	3515 33 38 98 0 0 3 24 39 93 2997
24	3548 112 39 262 0 0 10 25 48 367 13935
25	3660 33 40 78 0 0 3 26 37 94 3006
26	3693 70 42 270 0 0 6 27 48 257 11389
27	3763 58 44 274 0 0 5 28 48 205 8785
28	3821 23 45 108 0 0 2 29 42 71 2605
29	3844 71 46 302 0 0 6 30 48 270 12420
30	3915 57 50 234 0 0 5 31 48 199 8161
31	3972 35 92 286 0 0 3 38 48 133 5957
32	4007 11 94 94 0 0 1 38 38 38 1444
33	4018 23 96 148 0 0 2 39 47 86 3730
34	4041 36 104 298 0 0 3 42 48 138 6372
35	4077 24 110 128 0 0 2 42 45 87 3789
36	4101 36 112 124 0 0 3 43 45 131 5723
37	4137 24 120 132 0 0 2 44 45 89 3961
38	4161 24 122 134 0 0 2 45 45 90 4050
39	4185 24 138 314 0 0 2 46 50 96 4616
40	4209 12 142 142 0 0 1 47 47 47 2209
41	4221 24 150 166 0 0 2 47 48 95 4513
42	4245 12 162 162 0 0 1 48 48 48 2304
43	4257 12 310 310 0 0 1 49 49 49 2401

