version 3
run General-232-20250808-22:38:12-6765
attr configname General
attr datetime 20250808-22:38:12
attr datetimef 20250808-223812
attr experiment General
attr inifile omnetpp.ini
attr iterationvars ""
attr iterationvarsd ""
attr iterationvarsf ""
attr measurement ""
attr network RGG
attr processid 6765
attr repetition 232
attr replication #232
attr resultdir results
attr runnumber 232
attr seedset 232
config network RGG
config seed-set 232
config num-rngs 1
config sim-time-limit 10s
config repeat 500
config **.node[*].xCor "uniform(0.0, 1.0, 0)"
config **.node[*].yCor "uniform(0.0, 1.0, 0)"
config *.numWalkers 1
config *.numNodes 50
config *.enableDuplication true
config *.rc 0.4

vector 0 RGG.node[38] visitedPerTimestep ETV
vector 1 RGG.node[21] visitedPerTimestep ETV
vector 2 RGG.node[31] visitedPerTimestep ETV
vector 3 RGG.node[45] visitedPerTimestep ETV
vector 4 RGG.node[7] visitedPerTimestep ETV
vector 5 RGG.node[12] visitedPerTimestep ETV
vector 6 RGG.node[11] visitedPerTimestep ETV
vector 7 RGG.node[32] visitedPerTimestep ETV
vector 8 RGG.node[16] visitedPerTimestep ETV
vector 9 RGG.node[35] visitedPerTimestep ETV
vector 10 RGG.node[1] visitedPerTimestep ETV
vector 11 RGG.node[47] visitedPerTimestep ETV
vector 12 RGG.node[33] visitedPerTimestep ETV
vector 13 RGG.node[0] visitedPerTimestep ETV
vector 14 RGG.node[22] visitedPerTimestep ETV
vector 15 RGG.node[29] visitedPerTimestep ETV
vector 16 RGG.node[43] visitedPerTimestep ETV
vector 17 RGG.node[4] visitedPerTimestep ETV
vector 18 RGG.node[3] visitedPerTimestep ETV
vector 19 RGG.node[48] visitedPerTimestep ETV
vector 20 RGG.node[40] visitedPerTimestep ETV
vector 21 RGG.node[8] visitedPerTimestep ETV
vector 22 RGG.node[15] visitedPerTimestep ETV
vector 23 RGG.node[14] visitedPerTimestep ETV
vector 24 RGG.node[13] visitedPerTimestep ETV
vector 25 RGG.node[34] visitedPerTimestep ETV
vector 26 RGG.node[30] visitedPerTimestep ETV
vector 27 RGG.node[36] visitedPerTimestep ETV
vector 28 RGG.node[44] visitedPerTimestep ETV
vector 29 RGG.node[9] visitedPerTimestep ETV
vector 30 RGG.node[10] visitedPerTimestep ETV
vector 31 RGG.node[19] visitedPerTimestep ETV
vector 32 RGG.node[39] visitedPerTimestep ETV
vector 33 RGG.node[23] visitedPerTimestep ETV
vector 34 RGG.node[42] visitedPerTimestep ETV
vector 35 RGG.node[37] visitedPerTimestep ETV
vector 36 RGG.node[49] visitedPerTimestep ETV
vector 37 RGG.node[17] visitedPerTimestep ETV
vector 38 RGG.node[6] visitedPerTimestep ETV
vector 39 RGG.node[18] visitedPerTimestep ETV
vector 40 RGG.node[25] visitedPerTimestep ETV
vector 41 RGG.node[5] visitedPerTimestep ETV
vector 42 RGG.node[2] visitedPerTimestep ETV
vector 43 RGG.node[26] visitedPerTimestep ETV
vector 44 RGG.node[27] visitedPerTimestep ETV
0	1	0	1
0	5	0	4
0	110	0	44
1	2	0	2
1	178	0	48
1	214	0	48
2	3	0	3
2	58	0	34
2	138	0	48
2	182	0	48
2	198	0	48
3	4	0	4
3	116	0	44
3	186	0	48
3	210	0	48
4	6	0	5
4	62	0	35
4	86	0	40
5	7	0	6
5	41	0	27
5	60	0	34
5	114	0	44
5	226	0	48
6	8	0	7
6	10	0	8
6	19	0	16
6	122	0	45
6	222	0	48
7	9	0	8
7	70	0	39
7	78	0	40
7	100	0	44
8	11	0	9
8	20	0	16
8	23	0	18
9	12	0	10
9	33	0	24
10	13	0	11
10	36	0	26
10	104	0	44
10	126	0	46
10	166	0	48
11	14	0	12
11	162	0	48
12	15	0	13
12	37	0	26
12	44	0	29
12	106	0	44
13	16	0	14
13	28	0	21
13	134	0	48
14	17	0	15
14	30	0	22
14	40	0	27
14	120	0	45
14	136	0	48
14	234	0	48
15	18	0	16
15	24	0	18
15	84	0	40
16	21	0	17
16	130	0	47
17	22	0	18
17	39	0	27
17	140	0	48
17	174	0	48
18	25	0	19
18	76	0	40
19	26	0	20
19	54	0	34
19	74	0	39
20	27	0	21
20	132	0	47
20	154	0	48
21	29	0	22
21	238	0	48
21	246	0	50
22	31	0	23
22	158	0	48
23	32	0	24
24	34	0	25
25	35	0	26
25	124	0	45
26	38	0	27
26	108	0	44
26	202	0	48
26	230	0	48
27	42	0	28
27	118	0	44
28	43	0	29
29	45	0	30
29	48	0	32
29	72	0	39
29	102	0	44
30	46	0	31
31	47	0	32
31	49	0	32
32	50	0	33
32	144	0	48
32	148	0	48
33	52	0	34
33	56	0	34
33	68	0	39
33	98	0	44
33	142	0	48
33	146	0	48
33	150	0	48
34	64	0	36
34	96	0	44
35	66	0	38
35	190	0	48
36	80	0	40
36	194	0	48
37	82	0	40
37	112	0	44
38	88	0	41
38	92	0	43
39	90	0	42
40	94	0	44
41	128	0	47
41	218	0	48
42	170	0	48
43	206	0	48
44	242	0	49

