version 3
run General-161-20250808-22:38:11-6645
attr configname General
attr datetime 20250808-22:38:11
attr datetimef 20250808-223811
attr experiment General
attr inifile omnetpp.ini
attr iterationvars ""
attr iterationvarsd ""
attr iterationvarsf ""
attr measurement ""
attr network RGG
attr processid 6645
attr repetition 161
attr replication #161
attr resultdir results
attr runnumber 161
attr seedset 161
config network RGG
config seed-set 161
config num-rngs 1
config sim-time-limit 10s
config repeat 500
config **.node[*].xCor "uniform(0.0, 1.0, 0)"
config **.node[*].yCor "uniform(0.0, 1.0, 0)"
config *.numWalkers 1
config *.numNodes 50
config *.enableDuplication true
config *.rc 0.4

vector 0 RGG.node[28] visitedPerTimestep ETV
vector 1 RGG.node[48] visitedPerTimestep ETV
vector 2 RGG.node[40] visitedPerTimestep ETV
vector 3 RGG.node[24] visitedPerTimestep ETV
vector 4 RGG.node[37] visitedPerTimestep ETV
vector 5 RGG.node[7] visitedPerTimestep ETV
vector 6 RGG.node[23] visitedPerTimestep ETV
vector 7 RGG.node[27] visitedPerTimestep ETV
vector 8 RGG.node[20] visitedPerTimestep ETV
vector 9 RGG.node[1] visitedPerTimestep ETV
vector 10 RGG.node[6] visitedPerTimestep ETV
vector 11 RGG.node[30] visitedPerTimestep ETV
vector 12 RGG.node[42] visitedPerTimestep ETV
vector 13 RGG.node[13] visitedPerTimestep ETV
vector 14 RGG.node[44] visitedPerTimestep ETV
vector 15 RGG.node[41] visitedPerTimestep ETV
vector 16 RGG.node[5] visitedPerTimestep ETV
vector 17 RGG.node[33] visitedPerTimestep ETV
vector 18 RGG.node[0] visitedPerTimestep ETV
vector 19 RGG.node[10] visitedPerTimestep ETV
vector 20 RGG.node[26] visitedPerTimestep ETV
vector 21 RGG.node[3] visitedPerTimestep ETV
vector 22 RGG.node[36] visitedPerTimestep ETV
vector 23 RGG.node[45] visitedPerTimestep ETV
vector 24 RGG.node[31] visitedPerTimestep ETV
vector 25 RGG.node[34] visitedPerTimestep ETV
vector 26 RGG.node[16] visitedPerTimestep ETV
vector 27 RGG.node[11] visitedPerTimestep ETV
vector 28 RGG.node[4] visitedPerTimestep ETV
vector 29 RGG.node[47] visitedPerTimestep ETV
vector 30 RGG.node[18] visitedPerTimestep ETV
vector 31 RGG.node[14] visitedPerTimestep ETV
vector 32 RGG.node[15] visitedPerTimestep ETV
vector 33 RGG.node[8] visitedPerTimestep ETV
vector 34 RGG.node[2] visitedPerTimestep ETV
vector 35 RGG.node[19] visitedPerTimestep ETV
vector 36 RGG.node[22] visitedPerTimestep ETV
vector 37 RGG.node[12] visitedPerTimestep ETV
vector 38 RGG.node[17] visitedPerTimestep ETV
vector 39 RGG.node[29] visitedPerTimestep ETV
vector 40 RGG.node[43] visitedPerTimestep ETV
vector 41 RGG.node[9] visitedPerTimestep ETV
vector 42 RGG.node[39] visitedPerTimestep ETV
0	1	0	1
0	88	0	40
0	96	0	42
0	128	0	47
0	148	0	47
0	182	0	49
0	258	0	49
1	2	0	2
1	16	0	10
1	30	0	19
1	84	0	40
1	210	0	49
2	3	0	3
2	17	0	10
2	130	0	47
3	4	0	4
3	7	0	6
3	11	0	8
3	198	0	49
4	5	0	5
4	100	0	43
5	6	0	6
5	9	0	7
5	29	0	19
5	190	0	49
6	8	0	7
6	12	0	8
6	41	0	24
6	132	0	47
6	170	0	48
6	194	0	49
6	202	0	49
7	10	0	8
7	27	0	18
7	80	0	39
7	186	0	49
7	214	0	49
8	13	0	9
8	15	0	10
8	32	0	20
8	42	0	24
8	162	0	47
8	206	0	49
9	14	0	10
9	33	0	20
10	18	0	11
11	19	0	12
11	25	0	17
11	70	0	38
11	82	0	39
11	138	0	47
12	20	0	13
12	64	0	35
13	21	0	14
13	246	0	49
13	278	0	49
14	22	0	15
15	23	0	16
15	94	0	41
15	144	0	47
15	282	0	49
16	24	0	17
16	46	0	25
16	72	0	38
16	76	0	39
16	218	0	49
17	26	0	18
17	38	0	23
17	174	0	48
18	28	0	19
18	86	0	40
18	134	0	47
18	298	0	49
19	31	0	20
19	40	0	24
19	43	0	24
19	306	0	49
20	34	0	21
20	37	0	23
20	154	0	47
21	35	0	22
22	36	0	23
22	104	0	44
23	39	0	24
23	44	0	24
23	158	0	47
24	45	0	25
24	136	0	47
24	150	0	47
24	166	0	48
25	47	0	26
25	92	0	41
25	114	0	46
25	120	0	46
25	140	0	47
25	242	0	49
26	48	0	27
26	230	0	49
26	254	0	49
26	286	0	49
27	49	0	28
27	52	0	30
27	56	0	33
27	238	0	49
28	50	0	29
28	58	0	33
29	54	0	32
29	60	0	34
29	118	0	46
29	226	0	49
30	62	0	35
30	74	0	39
30	112	0	46
30	142	0	47
30	250	0	49
30	262	0	49
31	66	0	37
31	78	0	39
31	290	0	49
32	68	0	38
32	178	0	48
32	294	0	49
32	302	0	49
33	90	0	41
33	146	0	47
34	98	0	43
34	102	0	43
34	110	0	46
35	106	0	45
35	314	0	49
36	108	0	45
36	116	0	46
36	122	0	46
37	124	0	46
38	126	0	47
39	222	0	49
40	234	0	49
40	266	0	49
40	274	0	49
41	270	0	49
42	310	0	49
42	318	0	50

