version 3
run General-213-20250729-21:37:01-51954
attr configname General
attr datetime 20250729-21:37:01
attr datetimef 20250729-213701
attr experiment General
attr inifile omnetpp.ini
attr iterationvars ""
attr iterationvarsd ""
attr iterationvarsf ""
attr measurement ""
attr network RGG
attr processid 51954
attr repetition 213
attr replication #213
attr resultdir results
attr runnumber 213
attr seedset 213
config network RGG
config seed-set 213
config num-rngs 1
config sim-time-limit 10s
config repeat 500
config **.node[*].xCor "uniform(0.0, 1.0, 0)"
config **.node[*].yCor "uniform(0.0, 1.0, 0)"
config *.numWalkers 2
config *.numNodes 50
config *.enableDuplication false
config *.rc 0.33

vector 0 RGG.node[12] visitedPerTimestep ETV
vector 1 RGG.node[24] visitedPerTimestep ETV
vector 2 RGG.node[34] visitedPerTimestep ETV
vector 3 RGG.node[13] visitedPerTimestep ETV
vector 4 RGG.node[4] visitedPerTimestep ETV
vector 5 RGG.node[14] visitedPerTimestep ETV
vector 6 RGG.node[31] visitedPerTimestep ETV
vector 7 RGG.node[28] visitedPerTimestep ETV
vector 8 RGG.node[1] visitedPerTimestep ETV
vector 9 RGG.node[48] visitedPerTimestep ETV
vector 10 RGG.node[38] visitedPerTimestep ETV
vector 11 RGG.node[33] visitedPerTimestep ETV
vector 12 RGG.node[30] visitedPerTimestep ETV
vector 13 RGG.node[46] visitedPerTimestep ETV
vector 14 RGG.node[22] visitedPerTimestep ETV
vector 15 RGG.node[17] visitedPerTimestep ETV
vector 16 RGG.node[7] visitedPerTimestep ETV
vector 17 RGG.node[42] visitedPerTimestep ETV
vector 18 RGG.node[10] visitedPerTimestep ETV
vector 19 RGG.node[15] visitedPerTimestep ETV
vector 20 RGG.node[29] visitedPerTimestep ETV
vector 21 RGG.node[9] visitedPerTimestep ETV
vector 22 RGG.node[19] visitedPerTimestep ETV
vector 23 RGG.node[43] visitedPerTimestep ETV
vector 24 RGG.node[32] visitedPerTimestep ETV
vector 25 RGG.node[39] visitedPerTimestep ETV
vector 26 RGG.node[45] visitedPerTimestep ETV
vector 27 RGG.node[40] visitedPerTimestep ETV
vector 28 RGG.node[41] visitedPerTimestep ETV
vector 29 RGG.node[6] visitedPerTimestep ETV
vector 30 RGG.node[3] visitedPerTimestep ETV
vector 31 RGG.node[44] visitedPerTimestep ETV
vector 32 RGG.node[25] visitedPerTimestep ETV
vector 33 RGG.node[37] visitedPerTimestep ETV
vector 34 RGG.node[5] visitedPerTimestep ETV
vector 35 RGG.node[16] visitedPerTimestep ETV
vector 36 RGG.node[8] visitedPerTimestep ETV
vector 37 RGG.node[47] visitedPerTimestep ETV
vector 38 RGG.node[0] visitedPerTimestep ETV
vector 39 RGG.node[11] visitedPerTimestep ETV
vector 40 RGG.node[36] visitedPerTimestep ETV
vector 41 RGG.node[35] visitedPerTimestep ETV
vector 42 RGG.node[21] visitedPerTimestep ETV
vector 43 RGG.node[26] visitedPerTimestep ETV
vector 44 RGG.node[20] visitedPerTimestep ETV
vector 45 RGG.node[27] visitedPerTimestep ETV
vector 46 RGG.node[2] visitedPerTimestep ETV
vector 47 RGG.node[23] visitedPerTimestep ETV
0	2	0	2
0	98	0	37
0	144	0	38
0	254	0	46
1	4	0	4
1	142	0	38
1	146	0	38
1	310	0	47
2	6	0	6
2	58	0	30
2	106	0	37
2	148	0	38
2	312	0	47
3	8	0	8
3	34	0	26
3	40	0	27
3	52	0	29
3	168	0	42
3	172	0	42
3	184	0	44
3	232	0	45
3	242	0	45
4	10	0	10
4	24	0	20
4	42	0	27
4	170	0	42
4	220	0	45
4	388	0	50
5	12	0	12
5	56	0	29
5	178	0	44
5	314	0	47
5	330	0	47
5	384	0	49
6	14	0	13
6	22	0	19
6	30	0	24
6	50	0	29
6	188	0	44
6	226	0	45
6	238	0	45
6	386	0	49
7	16	0	15
7	28	0	23
7	44	0	27
7	54	0	29
7	120	0	37
7	124	0	37
7	186	0	44
7	218	0	45
7	228	0	45
7	320	0	47
7	326	0	47
8	18	0	16
8	36	0	26
8	60	0	30
8	166	0	42
8	214	0	45
8	318	0	47
8	336	0	47
8	352	0	47
8	376	0	49
9	20	0	18
9	48	0	28
9	132	0	38
9	224	0	45
9	240	0	45
9	322	0	47
9	328	0	47
9	334	0	47
10	26	0	22
10	116	0	37
10	230	0	45
10	234	0	45
10	244	0	45
11	32	0	25
11	126	0	37
11	182	0	44
12	38	0	27
12	130	0	37
12	134	0	38
12	180	0	44
12	216	0	45
12	222	0	45
12	236	0	45
13	46	0	28
13	118	0	37
13	122	0	37
13	128	0	37
13	324	0	47
13	332	0	47
14	62	0	31
14	136	0	38
14	152	0	39
14	174	0	42
14	208	0	45
14	212	0	45
14	378	0	49
15	64	0	31
16	66	0	31
16	96	0	37
16	250	0	45
16	260	0	46
16	294	0	46
17	68	0	32
17	280	0	46
17	286	0	46
18	70	0	32
18	140	0	38
18	278	0	46
18	292	0	46
19	72	0	32
19	102	0	37
19	304	0	47
19	308	0	47
20	74	0	34
20	264	0	46
20	270	0	46
21	76	0	34
21	268	0	46
22	78	0	34
22	248	0	45
23	80	0	34
23	94	0	37
23	108	0	37
24	82	0	35
24	88	0	36
24	92	0	37
24	112	0	37
25	84	0	35
26	86	0	36
26	110	0	37
26	194	0	44
26	198	0	44
27	90	0	36
27	290	0	46
28	100	0	37
28	104	0	37
28	138	0	38
28	206	0	45
28	262	0	46
29	114	0	37
29	190	0	44
29	196	0	44
29	246	0	45
29	272	0	46
30	150	0	39
30	370	0	49
31	154	0	40
31	158	0	41
31	164	0	42
31	338	0	47
31	344	0	47
31	350	0	47
31	366	0	49
31	374	0	49
31	380	0	49
32	156	0	41
32	162	0	42
32	346	0	47
32	364	0	49
32	368	0	49
33	160	0	42
33	342	0	47
33	348	0	47
33	358	0	48
33	362	0	49
33	372	0	49
34	176	0	43
34	210	0	45
35	192	0	44
36	200	0	44
36	266	0	46
37	202	0	44
38	204	0	45
38	274	0	46
38	282	0	46
39	252	0	46
39	256	0	46
39	296	0	46
39	300	0	46
40	258	0	46
40	298	0	46
41	276	0	46
42	284	0	46
43	288	0	46
44	302	0	47
44	306	0	47
45	316	0	47
45	340	0	47
45	354	0	47
45	382	0	49
46	356	0	48
47	360	0	49

