version 3
run General-447-20250729-21:37:07-52348
attr configname General
attr datetime 20250729-21:37:07
attr datetimef 20250729-213707
attr experiment General
attr inifile omnetpp.ini
attr iterationvars ""
attr iterationvarsd ""
attr iterationvarsf ""
attr measurement ""
attr network RGG
attr processid 52348
attr repetition 447
attr replication #447
attr resultdir results
attr runnumber 447
attr seedset 447
config network RGG
config seed-set 447
config num-rngs 1
config sim-time-limit 10s
config repeat 500
config **.node[*].xCor "uniform(0.0, 1.0, 0)"
config **.node[*].yCor "uniform(0.0, 1.0, 0)"
config *.numWalkers 2
config *.numNodes 50
config *.enableDuplication false
config *.rc 0.33

vector 0 RGG.node[36] visitedPerTimestep ETV
vector 1 RGG.node[0] visitedPerTimestep ETV
vector 2 RGG.node[27] visitedPerTimestep ETV
vector 3 RGG.node[21] visitedPerTimestep ETV
vector 4 RGG.node[15] visitedPerTimestep ETV
vector 5 RGG.node[26] visitedPerTimestep ETV
vector 6 RGG.node[33] visitedPerTimestep ETV
vector 7 RGG.node[10] visitedPerTimestep ETV
vector 8 RGG.node[9] visitedPerTimestep ETV
vector 9 RGG.node[11] visitedPerTimestep ETV
vector 10 RGG.node[13] visitedPerTimestep ETV
vector 11 RGG.node[1] visitedPerTimestep ETV
vector 12 RGG.node[40] visitedPerTimestep ETV
vector 13 RGG.node[5] visitedPerTimestep ETV
vector 14 RGG.node[8] visitedPerTimestep ETV
vector 15 RGG.node[18] visitedPerTimestep ETV
vector 16 RGG.node[32] visitedPerTimestep ETV
vector 17 RGG.node[16] visitedPerTimestep ETV
vector 18 RGG.node[38] visitedPerTimestep ETV
vector 19 RGG.node[28] visitedPerTimestep ETV
vector 20 RGG.node[20] visitedPerTimestep ETV
vector 21 RGG.node[24] visitedPerTimestep ETV
vector 22 RGG.node[37] visitedPerTimestep ETV
vector 23 RGG.node[29] visitedPerTimestep ETV
vector 24 RGG.node[47] visitedPerTimestep ETV
vector 25 RGG.node[34] visitedPerTimestep ETV
vector 26 RGG.node[41] visitedPerTimestep ETV
vector 27 RGG.node[31] visitedPerTimestep ETV
vector 28 RGG.node[49] visitedPerTimestep ETV
vector 29 RGG.node[25] visitedPerTimestep ETV
vector 30 RGG.node[12] visitedPerTimestep ETV
vector 31 RGG.node[6] visitedPerTimestep ETV
vector 32 RGG.node[7] visitedPerTimestep ETV
vector 33 RGG.node[14] visitedPerTimestep ETV
vector 34 RGG.node[23] visitedPerTimestep ETV
vector 35 RGG.node[35] visitedPerTimestep ETV
vector 36 RGG.node[30] visitedPerTimestep ETV
vector 37 RGG.node[44] visitedPerTimestep ETV
vector 38 RGG.node[43] visitedPerTimestep ETV
vector 39 RGG.node[3] visitedPerTimestep ETV
vector 40 RGG.node[46] visitedPerTimestep ETV
vector 41 RGG.node[48] visitedPerTimestep ETV
vector 42 RGG.node[17] visitedPerTimestep ETV
vector 43 RGG.node[19] visitedPerTimestep ETV
vector 44 RGG.node[45] visitedPerTimestep ETV
vector 45 RGG.node[22] visitedPerTimestep ETV
vector 46 RGG.node[39] visitedPerTimestep ETV
0	2	0	2
1	4	0	4
1	342	0	49
1	346	0	49
2	6	0	6
2	28	0	20
2	110	0	41
2	124	0	41
2	216	0	46
2	248	0	46
3	8	0	7
3	18	0	13
3	160	0	45
3	184	0	46
3	212	0	46
3	236	0	46
3	336	0	49
4	10	0	9
4	78	0	33
4	84	0	34
4	258	0	46
4	262	0	46
5	12	0	10
5	76	0	33
5	90	0	34
5	118	0	41
5	210	0	46
5	238	0	46
5	254	0	46
6	14	0	12
6	60	0	31
6	242	0	46
6	264	0	46
7	16	0	12
7	92	0	35
7	240	0	46
7	252	0	46
7	294	0	49
7	344	0	49
8	20	0	15
8	274	0	46
8	338	0	49
9	22	0	16
9	162	0	45
9	188	0	46
9	218	0	46
9	246	0	46
10	24	0	17
10	40	0	25
10	112	0	41
11	26	0	19
11	34	0	23
11	192	0	46
11	196	0	46
11	232	0	46
11	250	0	46
12	30	0	21
12	54	0	29
12	108	0	41
12	136	0	42
12	150	0	44
13	32	0	22
13	152	0	44
14	36	0	25
14	174	0	46
14	234	0	46
14	272	0	46
15	38	0	25
15	68	0	32
15	122	0	41
15	270	0	46
16	42	0	26
16	96	0	37
16	114	0	41
16	166	0	45
16	222	0	46
17	44	0	26
17	52	0	28
17	106	0	41
17	126	0	41
17	170	0	46
17	200	0	46
17	214	0	46
18	46	0	27
19	48	0	27
19	64	0	31
19	80	0	33
19	86	0	34
20	50	0	27
20	58	0	31
20	70	0	32
20	102	0	39
20	244	0	46
20	268	0	46
21	56	0	31
21	228	0	46
22	62	0	31
22	72	0	32
22	82	0	34
22	100	0	39
22	256	0	46
23	66	0	32
23	260	0	46
23	266	0	46
24	74	0	33
24	88	0	34
24	98	0	38
24	104	0	40
24	116	0	41
24	120	0	41
24	130	0	42
25	94	0	36
25	224	0	46
26	128	0	41
26	132	0	42
26	140	0	42
26	164	0	45
26	186	0	46
27	134	0	42
27	172	0	46
27	230	0	46
28	138	0	42
29	142	0	43
29	204	0	46
30	144	0	43
30	148	0	44
30	156	0	45
30	194	0	46
31	146	0	44
31	198	0	46
31	202	0	46
31	206	0	46
31	226	0	46
32	154	0	45
33	158	0	45
33	190	0	46
33	348	0	50
34	168	0	46
34	208	0	46
34	220	0	46
35	176	0	46
35	280	0	46
35	290	0	49
35	296	0	49
35	302	0	49
35	312	0	49
35	332	0	49
36	178	0	46
36	304	0	49
36	316	0	49
36	320	0	49
37	180	0	46
37	318	0	49
38	182	0	46
38	284	0	48
38	292	0	49
38	334	0	49
39	276	0	46
39	298	0	49
40	278	0	46
40	300	0	49
40	308	0	49
40	324	0	49
41	282	0	47
41	288	0	49
41	314	0	49
41	328	0	49
42	286	0	49
42	330	0	49
43	306	0	49
43	326	0	49
44	310	0	49
45	322	0	49
46	340	0	49

