version 3
run General-311-20250729-21:37:03-52114
attr configname General
attr datetime 20250729-21:37:03
attr datetimef 20250729-213703
attr experiment General
attr inifile omnetpp.ini
attr iterationvars ""
attr iterationvarsd ""
attr iterationvarsf ""
attr measurement ""
attr network RGG
attr processid 52114
attr repetition 311
attr replication #311
attr resultdir results
attr runnumber 311
attr seedset 311
config network RGG
config seed-set 311
config num-rngs 1
config sim-time-limit 10s
config repeat 500
config **.node[*].xCor "uniform(0.0, 1.0, 0)"
config **.node[*].yCor "uniform(0.0, 1.0, 0)"
config *.numWalkers 2
config *.numNodes 50
config *.enableDuplication false
config *.rc 0.33

vector 0 RGG.node[47] visitedPerTimestep ETV
vector 1 RGG.node[1] visitedPerTimestep ETV
vector 2 RGG.node[3] visitedPerTimestep ETV
vector 3 RGG.node[25] visitedPerTimestep ETV
vector 4 RGG.node[42] visitedPerTimestep ETV
vector 5 RGG.node[20] visitedPerTimestep ETV
vector 6 RGG.node[11] visitedPerTimestep ETV
vector 7 RGG.node[43] visitedPerTimestep ETV
vector 8 RGG.node[36] visitedPerTimestep ETV
vector 9 RGG.node[32] visitedPerTimestep ETV
vector 10 RGG.node[28] visitedPerTimestep ETV
vector 11 RGG.node[34] visitedPerTimestep ETV
vector 12 RGG.node[19] visitedPerTimestep ETV
vector 13 RGG.node[13] visitedPerTimestep ETV
vector 14 RGG.node[4] visitedPerTimestep ETV
vector 15 RGG.node[18] visitedPerTimestep ETV
vector 16 RGG.node[38] visitedPerTimestep ETV
vector 17 RGG.node[30] visitedPerTimestep ETV
vector 18 RGG.node[37] visitedPerTimestep ETV
vector 19 RGG.node[12] visitedPerTimestep ETV
vector 20 RGG.node[27] visitedPerTimestep ETV
vector 21 RGG.node[7] visitedPerTimestep ETV
vector 22 RGG.node[48] visitedPerTimestep ETV
vector 23 RGG.node[10] visitedPerTimestep ETV
vector 24 RGG.node[5] visitedPerTimestep ETV
vector 25 RGG.node[49] visitedPerTimestep ETV
vector 26 RGG.node[16] visitedPerTimestep ETV
vector 27 RGG.node[29] visitedPerTimestep ETV
vector 28 RGG.node[41] visitedPerTimestep ETV
vector 29 RGG.node[15] visitedPerTimestep ETV
vector 30 RGG.node[6] visitedPerTimestep ETV
vector 31 RGG.node[31] visitedPerTimestep ETV
vector 32 RGG.node[17] visitedPerTimestep ETV
vector 33 RGG.node[33] visitedPerTimestep ETV
vector 34 RGG.node[44] visitedPerTimestep ETV
vector 35 RGG.node[9] visitedPerTimestep ETV
vector 36 RGG.node[24] visitedPerTimestep ETV
vector 37 RGG.node[26] visitedPerTimestep ETV
vector 38 RGG.node[8] visitedPerTimestep ETV
vector 39 RGG.node[40] visitedPerTimestep ETV
vector 40 RGG.node[21] visitedPerTimestep ETV
vector 41 RGG.node[23] visitedPerTimestep ETV
vector 42 RGG.node[46] visitedPerTimestep ETV
vector 43 RGG.node[2] visitedPerTimestep ETV
vector 44 RGG.node[0] visitedPerTimestep ETV
vector 45 RGG.node[39] visitedPerTimestep ETV
vector 46 RGG.node[45] visitedPerTimestep ETV
vector 47 RGG.node[22] visitedPerTimestep ETV
vector 48 RGG.node[35] visitedPerTimestep ETV
0	2	0	2
0	40	0	26
0	84	0	39
0	106	0	40
0	154	0	41
0	172	0	41
0	302	0	47
0	308	0	47
0	346	0	48
0	354	0	48
0	372	0	49
0	418	0	49
0	456	0	49
0	462	0	49
1	4	0	4
1	14	0	9
1	134	0	40
1	240	0	46
1	274	0	47
1	280	0	47
1	298	0	47
1	448	0	49
1	464	0	49
2	6	0	6
2	10	0	7
2	100	0	40
2	178	0	43
2	224	0	46
2	234	0	46
2	252	0	47
2	304	0	47
2	326	0	48
2	340	0	48
2	444	0	49
2	450	0	49
2	466	0	49
3	8	0	7
3	34	0	22
3	88	0	39
3	328	0	48
3	374	0	49
3	414	0	49
3	442	0	49
4	12	0	8
4	136	0	40
4	140	0	40
4	170	0	41
4	220	0	46
4	258	0	47
4	370	0	49
4	454	0	49
4	472	0	49
5	16	0	11
5	70	0	37
5	138	0	40
5	164	0	41
5	176	0	42
5	204	0	46
5	262	0	47
5	336	0	48
5	400	0	49
6	18	0	13
6	26	0	18
6	144	0	41
6	150	0	41
6	166	0	41
6	196	0	46
6	200	0	46
6	232	0	46
6	312	0	48
6	342	0	48
6	482	0	49
7	20	0	15
7	148	0	41
7	198	0	46
7	486	0	49
7	490	0	49
8	22	0	17
8	146	0	41
8	188	0	46
8	484	0	49
8	488	0	49
9	24	0	18
9	186	0	45
9	192	0	46
9	230	0	46
9	398	0	49
9	470	0	49
9	478	0	49
10	28	0	19
10	194	0	46
10	212	0	46
10	218	0	46
10	254	0	47
10	392	0	49
10	474	0	49
11	30	0	21
11	216	0	46
11	334	0	48
12	32	0	22
12	64	0	35
12	438	0	49
12	460	0	49
13	36	0	24
13	46	0	27
13	52	0	30
13	110	0	40
13	408	0	49
14	38	0	26
14	44	0	27
14	56	0	32
14	112	0	40
14	330	0	48
14	378	0	49
14	406	0	49
14	424	0	49
14	428	0	49
14	458	0	49
15	42	0	27
15	96	0	40
15	162	0	41
15	380	0	49
16	48	0	28
16	60	0	34
16	332	0	48
16	436	0	49
17	50	0	30
17	422	0	49
17	432	0	49
18	54	0	31
18	62	0	35
18	434	0	49
19	58	0	33
19	426	0	49
20	66	0	36
20	90	0	39
20	94	0	40
20	108	0	40
20	158	0	41
20	430	0	49
20	440	0	49
21	68	0	37
21	160	0	41
21	214	0	46
21	404	0	49
21	420	0	49
22	72	0	37
22	102	0	40
22	174	0	41
22	190	0	46
22	256	0	47
22	396	0	49
22	476	0	49
22	480	0	49
23	74	0	37
23	168	0	41
23	226	0	46
23	394	0	49
23	452	0	49
24	76	0	38
24	152	0	41
24	180	0	44
24	184	0	44
24	260	0	47
24	338	0	48
24	344	0	48
25	78	0	38
25	116	0	40
25	132	0	40
25	182	0	44
25	264	0	47
25	352	0	48
25	402	0	49
25	416	0	49
26	80	0	39
26	118	0	40
26	130	0	40
26	246	0	46
26	284	0	47
26	322	0	48
27	82	0	39
27	250	0	47
27	278	0	47
27	300	0	47
27	310	0	47
27	314	0	48
27	446	0	49
28	86	0	39
28	114	0	40
28	156	0	41
28	348	0	48
28	412	0	49
29	92	0	40
30	98	0	40
30	350	0	48
31	104	0	40
31	142	0	40
31	202	0	46
31	210	0	46
31	222	0	46
31	228	0	46
31	306	0	47
31	468	0	49
32	120	0	40
32	242	0	46
32	296	0	47
33	122	0	40
33	248	0	47
33	268	0	47
33	286	0	47
34	124	0	40
34	270	0	47
34	292	0	47
35	126	0	40
35	238	0	46
35	266	0	47
35	272	0	47
36	128	0	40
36	236	0	46
36	276	0	47
36	288	0	47
36	320	0	48
36	324	0	48
37	206	0	46
37	356	0	48
37	368	0	49
37	384	0	49
37	390	0	49
38	208	0	46
39	244	0	46
39	294	0	47
39	318	0	48
40	282	0	47
40	316	0	48
41	290	0	47
42	358	0	48
42	362	0	49
43	360	0	49
43	388	0	49
44	364	0	49
45	366	0	49
45	382	0	49
46	376	0	49
46	410	0	49
47	386	0	49
48	492	0	50

