version 3
run General-407-20250808-22:38:14-7058
attr configname General
attr datetime 20250808-22:38:14
attr datetimef 20250808-223814
attr experiment General
attr inifile omnetpp.ini
attr iterationvars ""
attr iterationvarsd ""
attr iterationvarsf ""
attr measurement ""
attr network RGG
attr processid 7058
attr repetition 407
attr replication #407
attr resultdir results
attr runnumber 407
attr seedset 407
config network RGG
config seed-set 407
config num-rngs 1
config sim-time-limit 10s
config repeat 500
config **.node[*].xCor "uniform(0.0, 1.0, 0)"
config **.node[*].yCor "uniform(0.0, 1.0, 0)"
config *.numWalkers 1
config *.numNodes 50
config *.enableDuplication true
config *.rc 0.4

vector 0 RGG.node[26] visitedPerTimestep ETV
vector 1 RGG.node[35] visitedPerTimestep ETV
vector 2 RGG.node[10] visitedPerTimestep ETV
vector 3 RGG.node[24] visitedPerTimestep ETV
vector 4 RGG.node[48] visitedPerTimestep ETV
vector 5 RGG.node[2] visitedPerTimestep ETV
vector 6 RGG.node[30] visitedPerTimestep ETV
vector 7 RGG.node[7] visitedPerTimestep ETV
vector 8 RGG.node[0] visitedPerTimestep ETV
vector 9 RGG.node[33] visitedPerTimestep ETV
vector 10 RGG.node[4] visitedPerTimestep ETV
vector 11 RGG.node[31] visitedPerTimestep ETV
vector 12 RGG.node[17] visitedPerTimestep ETV
vector 13 RGG.node[21] visitedPerTimestep ETV
vector 14 RGG.node[28] visitedPerTimestep ETV
vector 15 RGG.node[44] visitedPerTimestep ETV
vector 16 RGG.node[29] visitedPerTimestep ETV
vector 17 RGG.node[40] visitedPerTimestep ETV
vector 18 RGG.node[18] visitedPerTimestep ETV
vector 19 RGG.node[38] visitedPerTimestep ETV
vector 20 RGG.node[34] visitedPerTimestep ETV
vector 21 RGG.node[13] visitedPerTimestep ETV
vector 22 RGG.node[37] visitedPerTimestep ETV
vector 23 RGG.node[25] visitedPerTimestep ETV
vector 24 RGG.node[39] visitedPerTimestep ETV
vector 25 RGG.node[46] visitedPerTimestep ETV
vector 26 RGG.node[15] visitedPerTimestep ETV
vector 27 RGG.node[45] visitedPerTimestep ETV
vector 28 RGG.node[43] visitedPerTimestep ETV
vector 29 RGG.node[42] visitedPerTimestep ETV
vector 30 RGG.node[27] visitedPerTimestep ETV
vector 31 RGG.node[20] visitedPerTimestep ETV
vector 32 RGG.node[1] visitedPerTimestep ETV
vector 33 RGG.node[6] visitedPerTimestep ETV
vector 34 RGG.node[19] visitedPerTimestep ETV
vector 35 RGG.node[9] visitedPerTimestep ETV
vector 36 RGG.node[22] visitedPerTimestep ETV
vector 37 RGG.node[11] visitedPerTimestep ETV
vector 38 RGG.node[5] visitedPerTimestep ETV
vector 39 RGG.node[14] visitedPerTimestep ETV
vector 40 RGG.node[16] visitedPerTimestep ETV
vector 41 RGG.node[49] visitedPerTimestep ETV
vector 42 RGG.node[32] visitedPerTimestep ETV
0	1	0	1
0	5	0	4
0	16	0	12
0	68	0	34
0	194	0	49
1	2	0	2
1	15	0	12
1	60	0	32
1	102	0	38
2	3	0	3
2	96	0	37
2	150	0	48
3	4	0	4
3	116	0	40
3	128	0	46
4	6	0	5
4	18	0	13
5	7	0	6
5	66	0	34
5	84	0	35
5	88	0	35
5	100	0	38
5	110	0	39
6	8	0	7
7	9	0	8
7	19	0	13
7	106	0	39
7	136	0	46
8	10	0	9
8	21	0	14
8	39	0	25
8	48	0	30
9	11	0	10
9	23	0	14
9	54	0	31
9	76	0	35
9	130	0	46
10	12	0	11
10	14	0	12
11	13	0	12
12	17	0	13
12	25	0	15
12	104	0	39
12	202	0	50
13	20	0	14
13	22	0	14
13	56	0	32
13	72	0	35
13	186	0	48
14	24	0	15
14	86	0	35
14	198	0	49
15	26	0	16
15	58	0	32
15	90	0	35
15	118	0	41
15	138	0	46
16	27	0	17
16	36	0	24
16	41	0	26
17	28	0	18
17	30	0	19
18	29	0	19
18	37	0	24
18	49	0	30
19	31	0	20
20	32	0	21
20	162	0	48
21	33	0	22
22	34	0	23
22	166	0	48
23	35	0	24
24	38	0	25
24	44	0	28
24	50	0	30
24	174	0	48
25	40	0	26
25	74	0	35
25	78	0	35
25	82	0	35
25	182	0	48
26	42	0	27
26	158	0	48
27	43	0	28
28	45	0	29
28	47	0	30
29	46	0	30
30	52	0	31
30	64	0	33
30	108	0	39
30	112	0	40
31	62	0	33
31	80	0	35
31	132	0	46
31	190	0	48
32	70	0	35
32	98	0	38
32	178	0	48
33	92	0	36
34	94	0	37
35	114	0	40
36	120	0	43
36	126	0	46
36	142	0	47
37	122	0	44
37	144	0	47
38	124	0	46
38	146	0	47
39	134	0	46
40	140	0	47
41	148	0	48
42	154	0	48
42	170	0	48

