version 3
run General-464-20250729-21:37:08-52373
attr configname General
attr datetime 20250729-21:37:08
attr datetimef 20250729-213708
attr experiment General
attr inifile omnetpp.ini
attr iterationvars ""
attr iterationvarsd ""
attr iterationvarsf ""
attr measurement ""
attr network RGG
attr processid 52373
attr repetition 464
attr replication #464
attr resultdir results
attr runnumber 464
attr seedset 464
config network RGG
config seed-set 464
config num-rngs 1
config sim-time-limit 10s
config repeat 500
config **.node[*].xCor "uniform(0.0, 1.0, 0)"
config **.node[*].yCor "uniform(0.0, 1.0, 0)"
config *.numWalkers 2
config *.numNodes 50
config *.enableDuplication false
config *.rc 0.33

vector 0 RGG.node[9] visitedPerTimestep ETV
vector 1 RGG.node[29] visitedPerTimestep ETV
vector 2 RGG.node[7] visitedPerTimestep ETV
vector 3 RGG.node[10] visitedPerTimestep ETV
vector 4 RGG.node[21] visitedPerTimestep ETV
vector 5 RGG.node[37] visitedPerTimestep ETV
vector 6 RGG.node[24] visitedPerTimestep ETV
vector 7 RGG.node[1] visitedPerTimestep ETV
vector 8 RGG.node[16] visitedPerTimestep ETV
vector 9 RGG.node[23] visitedPerTimestep ETV
vector 10 RGG.node[0] visitedPerTimestep ETV
vector 11 RGG.node[47] visitedPerTimestep ETV
vector 12 RGG.node[27] visitedPerTimestep ETV
vector 13 RGG.node[33] visitedPerTimestep ETV
vector 14 RGG.node[44] visitedPerTimestep ETV
vector 15 RGG.node[38] visitedPerTimestep ETV
vector 16 RGG.node[2] visitedPerTimestep ETV
vector 17 RGG.node[41] visitedPerTimestep ETV
vector 18 RGG.node[11] visitedPerTimestep ETV
vector 19 RGG.node[25] visitedPerTimestep ETV
vector 20 RGG.node[45] visitedPerTimestep ETV
vector 21 RGG.node[28] visitedPerTimestep ETV
vector 22 RGG.node[39] visitedPerTimestep ETV
vector 23 RGG.node[5] visitedPerTimestep ETV
vector 24 RGG.node[6] visitedPerTimestep ETV
vector 25 RGG.node[31] visitedPerTimestep ETV
vector 26 RGG.node[48] visitedPerTimestep ETV
vector 27 RGG.node[3] visitedPerTimestep ETV
vector 28 RGG.node[8] visitedPerTimestep ETV
vector 29 RGG.node[35] visitedPerTimestep ETV
vector 30 RGG.node[4] visitedPerTimestep ETV
vector 31 RGG.node[15] visitedPerTimestep ETV
vector 32 RGG.node[36] visitedPerTimestep ETV
vector 33 RGG.node[18] visitedPerTimestep ETV
vector 34 RGG.node[17] visitedPerTimestep ETV
vector 35 RGG.node[22] visitedPerTimestep ETV
vector 36 RGG.node[42] visitedPerTimestep ETV
vector 37 RGG.node[46] visitedPerTimestep ETV
vector 38 RGG.node[12] visitedPerTimestep ETV
vector 39 RGG.node[26] visitedPerTimestep ETV
vector 40 RGG.node[34] visitedPerTimestep ETV
vector 41 RGG.node[20] visitedPerTimestep ETV
vector 42 RGG.node[49] visitedPerTimestep ETV
vector 43 RGG.node[13] visitedPerTimestep ETV
vector 44 RGG.node[19] visitedPerTimestep ETV
vector 45 RGG.node[32] visitedPerTimestep ETV
vector 46 RGG.node[40] visitedPerTimestep ETV
0	2	0	2
0	302	0	48
1	4	0	4
1	272	0	47
1	276	0	47
2	6	0	6
3	8	0	7
3	148	0	45
3	156	0	45
4	10	0	8
4	146	0	45
4	216	0	46
4	234	0	46
5	12	0	10
5	92	0	43
5	240	0	46
6	14	0	12
6	116	0	45
6	134	0	45
6	144	0	45
6	174	0	46
6	178	0	46
6	260	0	47
6	326	0	48
7	16	0	13
7	38	0	30
7	68	0	41
7	74	0	42
7	90	0	43
7	108	0	45
7	316	0	48
7	338	0	48
7	342	0	48
8	18	0	14
8	110	0	45
8	114	0	45
8	120	0	45
8	256	0	47
8	352	0	48
9	20	0	15
9	348	0	48
9	372	0	49
10	22	0	17
10	366	0	49
10	370	0	49
11	24	0	19
11	356	0	48
11	360	0	49
12	26	0	20
12	368	0	49
13	28	0	22
14	30	0	23
14	362	0	49
15	32	0	25
15	112	0	45
15	184	0	46
15	346	0	48
16	34	0	27
16	186	0	46
16	252	0	47
16	344	0	48
16	380	0	49
17	36	0	29
17	70	0	41
17	170	0	46
17	222	0	46
17	248	0	47
18	40	0	32
18	50	0	38
18	76	0	42
18	98	0	44
18	312	0	48
18	320	0	48
18	334	0	48
19	42	0	34
20	44	0	35
20	158	0	45
20	200	0	46
20	204	0	46
20	218	0	46
20	296	0	47
21	46	0	36
21	166	0	46
21	220	0	46
21	226	0	46
21	250	0	47
21	284	0	47
22	48	0	37
22	202	0	46
22	244	0	46
22	310	0	48
22	318	0	48
22	340	0	48
23	52	0	38
23	64	0	40
23	84	0	43
23	100	0	44
23	118	0	45
23	124	0	45
23	374	0	49
24	54	0	39
24	130	0	45
24	142	0	45
25	56	0	39
25	62	0	40
25	88	0	43
25	106	0	45
25	138	0	45
25	258	0	47
25	324	0	48
26	58	0	40
26	132	0	45
26	140	0	45
27	60	0	40
27	80	0	43
27	126	0	45
27	330	0	48
28	66	0	41
28	78	0	43
28	82	0	43
28	122	0	45
28	128	0	45
28	314	0	48
29	72	0	41
29	154	0	45
29	196	0	46
29	214	0	46
29	232	0	46
29	242	0	46
29	308	0	48
30	86	0	43
30	136	0	45
30	180	0	46
30	336	0	48
31	94	0	43
31	104	0	45
31	176	0	46
31	236	0	46
32	96	0	43
32	262	0	47
32	322	0	48
32	328	0	48
33	102	0	45
33	172	0	46
33	194	0	46
33	264	0	47
34	150	0	45
34	198	0	46
34	230	0	46
34	270	0	47
34	274	0	47
34	292	0	47
34	300	0	48
35	152	0	45
35	206	0	46
35	224	0	46
35	246	0	46
35	266	0	47
35	384	0	50
36	160	0	45
36	192	0	46
36	306	0	48
36	382	0	49
37	162	0	45
37	188	0	46
38	164	0	46
38	210	0	46
38	290	0	47
38	294	0	47
39	168	0	46
39	212	0	46
39	228	0	46
39	282	0	47
39	286	0	47
39	298	0	47
40	182	0	46
40	332	0	48
40	376	0	49
41	190	0	46
41	280	0	47
41	288	0	47
42	208	0	46
42	268	0	47
42	278	0	47
42	304	0	48
43	238	0	46
44	254	0	47
44	378	0	49
45	350	0	48
45	354	0	48
46	358	0	49
46	364	0	49

