file 2740 1752512615                                            
version 3
run Showcase-0-20250714-20:01:46-8298
attr configname Showcase
attr datetime 20250714-20:01:46
attr datetimef 20250714-200146
attr experiment Showcase
attr inifile omnetpp.ini
attr iterationvars $0=1
attr iterationvarsd 1
attr iterationvarsf 1-
attr measurement $0=1
attr network RGG
attr processid 8298
attr repetition 0
attr replication #0
attr resultdir results
attr runnumber 0
attr seedset 4
config **.node[*].xCor "uniform(0.0, 1.0, 0)"
config **.node[*].yCor "uniform(0.0, 1.0, 0)"
config **.node[*].numWalkers 1
config network RGG
config seed-set 4
config num-rngs 1
config sim-time-limit 10s

vector 0 RGG.node[3] visitedPerTimestep ETV
vector 1 RGG.node[2] visitedPerTimestep ETV
vector 2 RGG.node[4] visitedPerTimestep ETV
vector 3 RGG.node[13] visitedPerTimestep ETV
vector 4 RGG.node[0] visitedPerTimestep ETV
vector 5 RGG.node[1] visitedPerTimestep ETV
vector 6 RGG.node[19] visitedPerTimestep ETV
vector 7 RGG.node[17] visitedPerTimestep ETV
vector 8 RGG.node[12] visitedPerTimestep ETV
vector 9 RGG.node[6] visitedPerTimestep ETV
vector 10 RGG.node[10] visitedPerTimestep ETV
vector 11 RGG.node[14] visitedPerTimestep ETV
vector 12 RGG.node[7] visitedPerTimestep ETV
vector 13 RGG.node[18] visitedPerTimestep ETV
vector 14 RGG.node[9] visitedPerTimestep ETV
vector 15 RGG.node[15] visitedPerTimestep ETV
vector 16 RGG.node[5] visitedPerTimestep ETV
vector 17 RGG.node[11] visitedPerTimestep ETV
vector 18 RGG.node[8] visitedPerTimestep ETV
vector 19 RGG.node[16] visitedPerTimestep ETV
0	1512 81 1 77 0 0 9 1 18 77 883
1	1593 25 2 12 0 0 3 2 6 13 65
2	1618 46 3 92 0 0 5 3 18 53 757
3	1664 64 4 85 0 0 7 4 18 75 1045
4	1728 28 5 82 0 0 3 5 18 40 638
5	1756 117 9 108 0 0 12 6 19 181 2979
6	1873 59 14 91 0 0 6 7 18 94 1566
7	1932 79 16 87 0 0 8 8 18 125 2061
8	2011 99 24 94 0 0 10 9 18 164 2758
9	2110 60 25 93 0 0 6 10 18 96 1584
10	2170 66 26 73 0 0 6 11 18 96 1570
11	2236 79 28 109 0 0 7 12 19 122 2162
12	2315 81 29 114 0 0 7 13 19 124 2224
13	2396 67 30 111 0 0 6 14 19 105 1853
14	2463 93 31 117 0 0 8 15 19 146 2678
15	2556 44 32 90 0 0 4 16 18 69 1193
16	2600 33 45 64 0 0 3 17 18 53 937
17	2633 46 53 115 0 0 4 18 19 74 1370
18	2679 48 101 118 0 0 4 19 19 76 1444
19	2727 12 119 119 0 0 1 20 20 20 400

