file 20925 1753450511                                           
version 3
run Showcase-0-20250725-16:35:01-18849
attr configname Showcase
attr datetime 20250725-16:35:01
attr datetimef 20250725-163501
attr experiment Showcase
attr inifile omnetpp.ini
attr iterationvars ""
attr iterationvarsd ""
attr iterationvarsf ""
attr measurement ""
attr network RGG
attr processid 18849
attr repetition 0
attr replication #0
attr resultdir results
attr runnumber 0
attr seedset 0
config **.node[*].xCor "uniform(0.0, 1.0, 0)"
config **.node[*].yCor "uniform(0.0, 1.0, 0)"
config *.numWalkers 2
config *.numNodes 50
config *.enableDuplication false
config *.rc 0.25
config network RGG
config seed-set 0
config num-rngs 1
config sim-time-limit 10s
config repeat 2

vector 0 RGG.node[45] visitedPerTimestep ETV
vector 1 RGG.node[33] visitedPerTimestep ETV
vector 2 RGG.node[18] visitedPerTimestep ETV
vector 3 RGG.node[36] visitedPerTimestep ETV
vector 4 RGG.node[37] visitedPerTimestep ETV
vector 5 RGG.node[12] visitedPerTimestep ETV
vector 6 RGG.node[32] visitedPerTimestep ETV
vector 7 RGG.node[6] visitedPerTimestep ETV
vector 8 RGG.node[28] visitedPerTimestep ETV
vector 9 RGG.node[35] visitedPerTimestep ETV
vector 10 RGG.node[11] visitedPerTimestep ETV
vector 11 RGG.node[0] visitedPerTimestep ETV
vector 12 RGG.node[39] visitedPerTimestep ETV
vector 13 RGG.node[5] visitedPerTimestep ETV
vector 14 RGG.node[22] visitedPerTimestep ETV
vector 15 RGG.node[4] visitedPerTimestep ETV
vector 16 RGG.node[30] visitedPerTimestep ETV
vector 17 RGG.node[42] visitedPerTimestep ETV
vector 18 RGG.node[46] visitedPerTimestep ETV
vector 19 RGG.node[7] visitedPerTimestep ETV
vector 20 RGG.node[8] visitedPerTimestep ETV
vector 21 RGG.node[49] visitedPerTimestep ETV
vector 22 RGG.node[29] visitedPerTimestep ETV
vector 23 RGG.node[9] visitedPerTimestep ETV
vector 24 RGG.node[48] visitedPerTimestep ETV
vector 25 RGG.node[25] visitedPerTimestep ETV
vector 26 RGG.node[44] visitedPerTimestep ETV
vector 27 RGG.node[34] visitedPerTimestep ETV
vector 28 RGG.node[16] visitedPerTimestep ETV
vector 29 RGG.node[26] visitedPerTimestep ETV
vector 30 RGG.node[40] visitedPerTimestep ETV
vector 31 RGG.node[15] visitedPerTimestep ETV
vector 32 RGG.node[14] visitedPerTimestep ETV
vector 33 RGG.node[47] visitedPerTimestep ETV
vector 34 RGG.node[3] visitedPerTimestep ETV
vector 35 RGG.node[10] visitedPerTimestep ETV
vector 36 RGG.node[21] visitedPerTimestep ETV
vector 37 RGG.node[13] visitedPerTimestep ETV
vector 38 RGG.node[1] visitedPerTimestep ETV
vector 39 RGG.node[38] visitedPerTimestep ETV
vector 40 RGG.node[19] visitedPerTimestep ETV
vector 41 RGG.node[27] visitedPerTimestep ETV
vector 42 RGG.node[17] visitedPerTimestep ETV
vector 43 RGG.node[2] visitedPerTimestep ETV
vector 44 RGG.node[23] visitedPerTimestep ETV
vector 45 RGG.node[31] visitedPerTimestep ETV
vector 46 RGG.node[41] visitedPerTimestep ETV
vector 47 RGG.node[20] visitedPerTimestep ETV
vector 48 RGG.node[24] visitedPerTimestep ETV
0	2923 623 2 2914 0 0 54 2 49 2421 113863
1	3546 393 4 2870 0 0 34 4 49 1537 72299
2	3939 367 8 2860 0 0 32 5 49 1416 65326
3	4306 589 10 2866 0 0 51 6 49 2311 109049
4	4895 451 12 2916 0 0 39 7 49 1783 84171
5	5346 713 14 2840 0 0 62 9 49 2853 135241
6	6059 427 18 2832 0 0 37 10 49 1687 80009
7	6486 636 20 2910 0 0 55 11 49 2541 120055
8	7122 394 22 2912 0 0 34 12 49 1594 76312
9	7516 390 24 2816 0 0 34 13 49 1555 72817
10	7906 634 30 2906 0 0 51 17 49 2305 108093
11	8540 505 32 2922 0 0 40 17 50 1881 89945
12	9045 439 36 2920 0 0 35 20 49 1616 76620
13	9484 507 48 2900 0 0 40 23 49 1898 91276
14	9991 681 58 2902 0 0 54 25 49 2556 122040
15	10672 340 68 2560 0 0 27 28 49 1274 60624
16	11012 228 78 2830 0 0 18 30 49 859 41329
17	11240 286 96 2810 0 0 23 31 49 1039 47801
18	11526 515 106 2886 0 0 41 32 49 1970 94948
19	12041 176 116 2752 0 0 14 33 49 635 29213
20	12217 103 118 2576 0 0 8 33 49 374 17702
21	12320 508 162 2904 0 0 40 40 49 1929 93173
22	12828 587 164 2898 0 0 46 40 49 2217 107053
23	13415 431 176 2908 0 0 34 41 49 1628 78134
24	13846 315 186 2896 0 0 25 41 49 1204 58064
25	14161 523 202 2846 0 0 41 41 49 1985 96193
26	14684 549 232 2798 0 0 43 45 49 2089 101509
27	15233 185 292 2888 0 0 15 46 49 715 34105
28	15418 248 294 2782 0 0 20 46 49 962 46292
29	15666 284 298 2890 0 0 23 46 49 1104 53016
30	15950 267 324 2894 0 0 21 47 49 1021 49647
31	16217 87 386 2790 0 0 7 48 49 339 16419
32	16304 189 392 2780 0 0 15 48 49 729 35433
33	16493 38 444 2788 0 0 3 48 49 146 7106
34	16531 290 484 2734 0 0 23 48 49 1114 53962
35	16821 498 486 2736 0 0 39 48 49 1899 92475
36	17319 356 488 2694 0 0 28 48 49 1358 65870
37	17675 329 492 2692 0 0 26 48 49 1264 61456
38	18004 580 494 2732 0 0 45 48 49 2191 106687
39	18584 228 496 2678 0 0 18 48 49 874 42442
40	18812 304 504 2688 0 0 24 48 49 1164 56460
41	19116 216 506 2704 0 0 17 48 49 827 40235
42	19332 242 518 2682 0 0 19 48 49 923 44843
43	19574 410 522 2674 0 0 32 48 49 1558 75862
44	19984 408 542 2738 0 0 32 48 49 1558 75862
45	20392 370 576 2700 0 0 29 48 49 1412 68756
46	20762 110 952 1736 0 0 9 48 49 434 20930
47	20872 26 1154 1520 0 0 2 49 49 98 4802
48	20898 26 2008 2786 0 0 2 49 49 98 4802

