version 3
run Showcase-2-20250725-14:23:19-8545
attr configname Showcase
attr datetime 20250725-14:23:19
attr datetimef 20250725-142319
attr experiment Showcase
attr inifile omnetpp.ini
attr iterationvars "$0=2, $1=true"
attr iterationvarsd 2/true
attr iterationvarsf 2,true-
attr measurement "$0=2, $1=true"
attr network RGG
attr processid 8545
attr repetition 0
attr replication #0
attr resultdir results
attr runnumber 2
attr seedset 2
config **.node[*].xCor "uniform(0.0, 1.0, 0)"
config **.node[*].yCor "uniform(0.0, 1.0, 0)"
config **.node[*].numWalkers 2
config **.node[*].numNodes 20
config **.node[*].enableDuplication true
config network RGG
config seed-set 2
config num-rngs 1
config sim-time-limit 10s

vector 0 RGG.node[8] visitedPerTimestep ETV
vector 1 RGG.node[24] visitedPerTimestep ETV
vector 2 RGG.node[20] visitedPerTimestep ETV
vector 3 RGG.node[18] visitedPerTimestep ETV
vector 4 RGG.node[4] visitedPerTimestep ETV
vector 5 RGG.node[12] visitedPerTimestep ETV
vector 6 RGG.node[13] visitedPerTimestep ETV
vector 7 RGG.node[0] visitedPerTimestep ETV
vector 8 RGG.node[3] visitedPerTimestep ETV
vector 9 RGG.node[10] visitedPerTimestep ETV
vector 10 RGG.node[16] visitedPerTimestep ETV
vector 11 RGG.node[9] visitedPerTimestep ETV
vector 12 RGG.node[5] visitedPerTimestep ETV
vector 13 RGG.node[7] visitedPerTimestep ETV
vector 14 RGG.node[15] visitedPerTimestep ETV
0	2	0	2
0	38	0	20
1	4	0	4
1	14	0	11
1	32	0	16
1	60	0	20
2	6	0	5
2	28	0	15
2	46	0	20
2	54	0	20
2	64	0	21
3	8	0	7
4	10	0	8
4	42	0	20
5	12	0	10
5	16	0	11
6	18	0	11
6	52	0	20
7	20	0	12
7	50	0	20
8	22	0	13
8	36	0	19
9	24	0	15
10	26	0	15
11	30	0	16
11	56	0	20
11	62	0	21
12	34	0	18
12	48	0	20
12	58	0	20
13	40	0	20
14	44	0	20

