version 3
run Showcase-20-20250808-22:35:53-6201
attr configname Showcase
attr datetime 20250808-22:35:53
attr datetimef 20250808-223553
attr experiment Showcase
attr inifile omnetpp.ini
attr iterationvars ""
attr iterationvarsd ""
attr iterationvarsf ""
attr measurement ""
attr network RGG
attr processid 6201
attr repetition 20
attr replication #20
attr resultdir results
attr runnumber 20
attr seedset 20
config network RGG
config seed-set 20
config num-rngs 1
config sim-time-limit 10s
config repeat 500
config **.node[*].xCor "uniform(0.0, 1.0, 0)"
config **.node[*].yCor "uniform(0.0, 1.0, 0)"
config *.numWalkers 1
config *.numNodes 50
config *.enableDuplication true
config *.rc 0.4

vector 0 RGG.node[37] visitedPerTimestep ETV
vector 1 RGG.node[36] visitedPerTimestep ETV
vector 2 RGG.node[35] visitedPerTimestep ETV
vector 3 RGG.node[39] visitedPerTimestep ETV
vector 4 RGG.node[9] visitedPerTimestep ETV
vector 5 RGG.node[42] visitedPerTimestep ETV
vector 6 RGG.node[38] visitedPerTimestep ETV
vector 7 RGG.node[46] visitedPerTimestep ETV
vector 8 RGG.node[43] visitedPerTimestep ETV
vector 9 RGG.node[28] visitedPerTimestep ETV
vector 10 RGG.node[26] visitedPerTimestep ETV
vector 11 RGG.node[24] visitedPerTimestep ETV
vector 12 RGG.node[29] visitedPerTimestep ETV
vector 13 RGG.node[23] visitedPerTimestep ETV
vector 14 RGG.node[7] visitedPerTimestep ETV
vector 15 RGG.node[47] visitedPerTimestep ETV
vector 16 RGG.node[32] visitedPerTimestep ETV
vector 17 RGG.node[25] visitedPerTimestep ETV
vector 18 RGG.node[18] visitedPerTimestep ETV
vector 19 RGG.node[33] visitedPerTimestep ETV
vector 20 RGG.node[41] visitedPerTimestep ETV
vector 21 RGG.node[19] visitedPerTimestep ETV
vector 22 RGG.node[20] visitedPerTimestep ETV
vector 23 RGG.node[14] visitedPerTimestep ETV
vector 24 RGG.node[12] visitedPerTimestep ETV
vector 25 RGG.node[49] visitedPerTimestep ETV
0	1	0	1
0	34	0	22
0	52	0	26
1	2	0	2
1	48	0	26
1	50	0	26
2	3	0	3
2	33	0	22
2	35	0	22
2	43	0	25
3	4	0	4
4	5	0	5
5	6	0	6
5	23	0	20
6	7	0	7
6	32	0	22
7	8	0	8
7	14	0	13
7	25	0	20
7	44	0	25
8	9	0	9
8	29	0	20
9	10	0	10
9	26	0	20
9	45	0	25
10	11	0	11
10	36	0	22
11	12	0	12
11	39	0	24
11	41	0	24
12	13	0	13
12	40	0	24
13	15	0	14
14	16	0	15
14	46	0	25
15	17	0	16
15	19	0	17
15	49	0	26
16	18	0	17
16	28	0	20
17	20	0	18
17	24	0	20
17	27	0	20
18	21	0	19
19	22	0	20
20	30	0	21
21	31	0	22
22	37	0	23
23	38	0	24
24	42	0	25
25	47	0	26

