file 2384 1753450000                                            
version 3
run Showcase-22-20250725-16:26:17-15824
attr configname Showcase
attr datetime 20250725-16:26:17
attr datetimef 20250725-162617
attr experiment Showcase
attr inifile omnetpp.ini
attr iterationvars ""
attr iterationvarsd ""
attr iterationvarsf ""
attr measurement ""
attr network RGG
attr processid 15824
attr repetition 22
attr replication #22
attr resultdir results
attr runnumber 22
attr seedset 22
config **.node[*].xCor "uniform(0.0, 1.0, 0)"
config **.node[*].yCor "uniform(0.0, 1.0, 0)"
config *.numWalkers 2
config *.numNodes 25
config *.enableDuplication false
config network RGG
config seed-set 22
config num-rngs 1
config sim-time-limit 10s
config repeat 500

vector 0 RGG.node[16] visitedPerTimestep ETV
vector 1 RGG.node[17] visitedPerTimestep ETV
vector 2 RGG.node[7] visitedPerTimestep ETV
vector 3 RGG.node[23] visitedPerTimestep ETV
vector 4 RGG.node[12] visitedPerTimestep ETV
vector 5 RGG.node[11] visitedPerTimestep ETV
vector 6 RGG.node[8] visitedPerTimestep ETV
vector 7 RGG.node[4] visitedPerTimestep ETV
vector 8 RGG.node[24] visitedPerTimestep ETV
vector 9 RGG.node[9] visitedPerTimestep ETV
vector 10 RGG.node[1] visitedPerTimestep ETV
vector 11 RGG.node[14] visitedPerTimestep ETV
vector 12 RGG.node[22] visitedPerTimestep ETV
vector 13 RGG.node[2] visitedPerTimestep ETV
vector 14 RGG.node[3] visitedPerTimestep ETV
vector 15 RGG.node[10] visitedPerTimestep ETV
vector 16 RGG.node[18] visitedPerTimestep ETV
vector 17 RGG.node[6] visitedPerTimestep ETV
vector 18 RGG.node[5] visitedPerTimestep ETV
vector 19 RGG.node[20] visitedPerTimestep ETV
vector 20 RGG.node[21] visitedPerTimestep ETV
vector 21 RGG.node[13] visitedPerTimestep ETV
0	1673 18 2 50 0 0 2 2 20 22 404
1	1691 56 4 122 0 0 6 3 24 73 1261
2	1747 56 6 98 0 0 6 5 22 87 1605
3	1803 28 8 90 0 0 3 6 22 49 961
4	1831 58 10 76 0 0 6 6 22 95 1747
5	1889 58 12 92 0 0 6 7 22 97 1779
6	1947 41 28 108 0 0 4 11 24 78 1622
7	1988 32 30 114 0 0 3 13 24 59 1229
8	2020 32 32 116 0 0 3 15 24 62 1330
9	2052 10 34 34 0 0 1 16 16 16 256
10	2062 69 36 134 0 0 6 16 24 129 2825
11	2131 46 38 112 0 0 4 17 24 85 1833
12	2177 67 44 100 0 0 6 19 22 127 2695
13	2244 11 54 54 0 0 1 20 20 20 400
14	2255 47 56 136 0 0 4 21 24 93 2169
15	2302 11 62 62 0 0 1 21 21 21 441
16	2313 11 74 74 0 0 1 22 22 22 484
17	2324 11 88 88 0 0 1 22 22 22 484
18	2335 12 110 110 0 0 1 24 24 24 576
19	2347 12 126 126 0 0 1 24 24 24 576
20	2359 12 130 130 0 0 1 24 24 24 576
21	2371 12 132 132 0 0 1 24 24 24 576

