version 3
run Showcase-0-20250714-20:01:46-8298
attr configname Showcase
attr datetime 20250714-20:01:46
attr datetimef 20250714-200146
attr experiment Showcase
attr inifile omnetpp.ini
attr iterationvars $0=1
attr iterationvarsd 1
attr iterationvarsf 1-
attr measurement $0=1
attr network RGG
attr processid 8298
attr repetition 0
attr replication #0
attr resultdir results
attr runnumber 0
attr seedset 4
config **.node[*].xCor "uniform(0.0, 1.0, 0)"
config **.node[*].yCor "uniform(0.0, 1.0, 0)"
config **.node[*].numWalkers 1
config network RGG
config seed-set 4
config num-rngs 1
config sim-time-limit 10s

vector 0 RGG.node[3] visitedPerTimestep ETV
vector 1 RGG.node[2] visitedPerTimestep ETV
vector 2 RGG.node[4] visitedPerTimestep ETV
vector 3 RGG.node[13] visitedPerTimestep ETV
vector 4 RGG.node[0] visitedPerTimestep ETV
vector 5 RGG.node[1] visitedPerTimestep ETV
vector 6 RGG.node[19] visitedPerTimestep ETV
vector 7 RGG.node[17] visitedPerTimestep ETV
vector 8 RGG.node[12] visitedPerTimestep ETV
vector 9 RGG.node[6] visitedPerTimestep ETV
vector 10 RGG.node[10] visitedPerTimestep ETV
vector 11 RGG.node[14] visitedPerTimestep ETV
vector 12 RGG.node[7] visitedPerTimestep ETV
vector 13 RGG.node[18] visitedPerTimestep ETV
vector 14 RGG.node[9] visitedPerTimestep ETV
vector 15 RGG.node[15] visitedPerTimestep ETV
vector 16 RGG.node[5] visitedPerTimestep ETV
vector 17 RGG.node[11] visitedPerTimestep ETV
vector 18 RGG.node[8] visitedPerTimestep ETV
vector 19 RGG.node[16] visitedPerTimestep ETV
0	1	0	1
0	8	0	5
0	10	0	6
0	15	0	7
0	19	0	8
0	21	0	8
0	23	0	8
0	33	0	16
0	77	0	18
1	2	0	2
1	6	0	5
1	12	0	6
2	3	0	3
2	11	0	6
2	17	0	8
2	83	0	18
2	92	0	18
3	4	0	4
3	7	0	5
3	13	0	6
3	22	0	8
3	34	0	16
3	81	0	18
3	85	0	18
4	5	0	5
4	51	0	17
4	82	0	18
5	9	0	6
5	18	0	8
5	20	0	8
5	37	0	16
5	46	0	17
5	48	0	17
5	61	0	18
5	65	0	18
5	71	0	18
5	78	0	18
5	95	0	18
5	108	0	19
6	14	0	7
6	40	0	16
6	50	0	17
6	80	0	18
6	89	0	18
6	91	0	18
7	16	0	8
7	27	0	11
7	44	0	16
7	59	0	18
7	63	0	18
7	67	0	18
7	76	0	18
7	87	0	18
8	24	0	9
8	35	0	16
8	39	0	16
8	41	0	16
8	49	0	17
8	75	0	18
8	79	0	18
8	86	0	18
8	88	0	18
8	94	0	18
9	25	0	10
9	36	0	16
9	42	0	16
9	72	0	18
9	74	0	18
9	93	0	18
10	26	0	11
10	38	0	16
10	43	0	16
10	47	0	17
10	60	0	18
10	73	0	18
11	28	0	12
11	55	0	18
11	66	0	18
11	70	0	18
11	96	0	18
11	107	0	19
11	109	0	19
12	29	0	13
12	57	0	18
12	97	0	18
12	100	0	18
12	103	0	19
12	105	0	19
12	114	0	19
13	30	0	14
13	54	0	18
13	56	0	18
13	69	0	18
13	99	0	18
13	111	0	19
14	31	0	15
14	58	0	18
14	98	0	18
14	102	0	19
14	104	0	19
14	110	0	19
14	113	0	19
14	117	0	19
15	32	0	16
15	52	0	17
15	84	0	18
15	90	0	18
16	45	0	17
16	62	0	18
16	64	0	18
17	53	0	18
17	68	0	18
17	106	0	19
17	115	0	19
18	101	0	19
18	112	0	19
18	116	0	19
18	118	0	19
19	119	0	20

