version 3
run Showcase-14-20250723-22:44:55-120504
attr configname Showcase
attr datetime 20250723-22:44:55
attr datetimef 20250723-224455
attr experiment Showcase
attr inifile omnetpp.ini
attr iterationvars ""
attr iterationvarsd ""
attr iterationvarsf ""
attr measurement ""
attr network RGG
attr processid 120504
attr repetition 14
attr replication #14
attr resultdir results
attr runnumber 14
attr seedset 1
config **.node[*].xCor "uniform(0.0, 1.0, 0)"
config **.node[*].yCor "uniform(0.0, 1.0, 0)"
config **.node[*].numWalkers 1
config **.node[*].numNodes 20
config network RGG
config seed-set 1
config sim-time-limit 10s
config repeat 50

vector 0 RGG.node[10] visitedPerTimestep ETV
vector 1 RGG.node[14] visitedPerTimestep ETV
vector 2 RGG.node[6] visitedPerTimestep ETV
vector 3 RGG.node[22] visitedPerTimestep ETV
vector 4 RGG.node[4] visitedPerTimestep ETV
vector 5 RGG.node[7] visitedPerTimestep ETV
vector 6 RGG.node[20] visitedPerTimestep ETV
vector 7 RGG.node[9] visitedPerTimestep ETV
vector 8 RGG.node[18] visitedPerTimestep ETV
vector 9 RGG.node[2] visitedPerTimestep ETV
vector 10 RGG.node[17] visitedPerTimestep ETV
vector 11 RGG.node[24] visitedPerTimestep ETV
0	1	0	1
1	2	0	2
1	38	0	20
1	200	0	25
2	3	0	3
2	56	0	23
3	4	0	4
4	5	0	5
5	8	0	8
5	173	0	24
6	11	0	11
6	17	0	11
6	119	0	24
7	14	0	11
7	20	0	12
7	146	0	24
8	29	0	16
9	47	0	22
10	65	0	23
11	92	0	24

