version 3
run Showcase-0-20250725-16:35:01-18849
attr configname Showcase
attr datetime 20250725-16:35:01
attr datetimef 20250725-163501
attr experiment Showcase
attr inifile omnetpp.ini
attr iterationvars ""
attr iterationvarsd ""
attr iterationvarsf ""
attr measurement ""
attr network RGG
attr processid 18849
attr repetition 0
attr replication #0
attr resultdir results
attr runnumber 0
attr seedset 0
config **.node[*].xCor "uniform(0.0, 1.0, 0)"
config **.node[*].yCor "uniform(0.0, 1.0, 0)"
config *.numWalkers 2
config *.numNodes 50
config *.enableDuplication false
config *.rc 0.25
config network RGG
config seed-set 0
config num-rngs 1
config sim-time-limit 10s
config repeat 2

vector 0 RGG.node[45] visitedPerTimestep ETV
vector 1 RGG.node[33] visitedPerTimestep ETV
vector 2 RGG.node[18] visitedPerTimestep ETV
vector 3 RGG.node[36] visitedPerTimestep ETV
vector 4 RGG.node[37] visitedPerTimestep ETV
vector 5 RGG.node[12] visitedPerTimestep ETV
vector 6 RGG.node[32] visitedPerTimestep ETV
vector 7 RGG.node[6] visitedPerTimestep ETV
vector 8 RGG.node[28] visitedPerTimestep ETV
vector 9 RGG.node[35] visitedPerTimestep ETV
vector 10 RGG.node[11] visitedPerTimestep ETV
vector 11 RGG.node[0] visitedPerTimestep ETV
vector 12 RGG.node[39] visitedPerTimestep ETV
vector 13 RGG.node[5] visitedPerTimestep ETV
vector 14 RGG.node[22] visitedPerTimestep ETV
vector 15 RGG.node[4] visitedPerTimestep ETV
vector 16 RGG.node[30] visitedPerTimestep ETV
vector 17 RGG.node[42] visitedPerTimestep ETV
vector 18 RGG.node[46] visitedPerTimestep ETV
vector 19 RGG.node[7] visitedPerTimestep ETV
vector 20 RGG.node[8] visitedPerTimestep ETV
vector 21 RGG.node[49] visitedPerTimestep ETV
vector 22 RGG.node[29] visitedPerTimestep ETV
vector 23 RGG.node[9] visitedPerTimestep ETV
vector 24 RGG.node[48] visitedPerTimestep ETV
vector 25 RGG.node[25] visitedPerTimestep ETV
vector 26 RGG.node[44] visitedPerTimestep ETV
vector 27 RGG.node[34] visitedPerTimestep ETV
vector 28 RGG.node[16] visitedPerTimestep ETV
vector 29 RGG.node[26] visitedPerTimestep ETV
vector 30 RGG.node[40] visitedPerTimestep ETV
vector 31 RGG.node[15] visitedPerTimestep ETV
vector 32 RGG.node[14] visitedPerTimestep ETV
vector 33 RGG.node[47] visitedPerTimestep ETV
vector 34 RGG.node[3] visitedPerTimestep ETV
vector 35 RGG.node[10] visitedPerTimestep ETV
vector 36 RGG.node[21] visitedPerTimestep ETV
vector 37 RGG.node[13] visitedPerTimestep ETV
vector 38 RGG.node[1] visitedPerTimestep ETV
vector 39 RGG.node[38] visitedPerTimestep ETV
vector 40 RGG.node[19] visitedPerTimestep ETV
vector 41 RGG.node[27] visitedPerTimestep ETV
vector 42 RGG.node[17] visitedPerTimestep ETV
vector 43 RGG.node[2] visitedPerTimestep ETV
vector 44 RGG.node[23] visitedPerTimestep ETV
vector 45 RGG.node[31] visitedPerTimestep ETV
vector 46 RGG.node[41] visitedPerTimestep ETV
vector 47 RGG.node[20] visitedPerTimestep ETV
vector 48 RGG.node[24] visitedPerTimestep ETV
0	2	0	2
0	6	0	4
0	50	0	23
0	82	0	30
0	92	0	31
0	128	0	33
0	144	0	37
0	152	0	40
0	156	0	40
0	212	0	42
0	248	0	45
0	252	0	45
0	270	0	45
0	640	0	48
0	700	0	48
0	730	0	48
0	1012	0	48
0	1134	0	48
0	1160	0	49
0	1182	0	49
0	1192	0	49
0	1232	0	49
0	1236	0	49
0	1350	0	49
0	1356	0	49
0	1372	0	49
0	1528	0	49
0	1594	0	49
0	1696	0	49
0	1964	0	49
0	2036	0	49
0	2084	0	49
0	2112	0	49
0	2136	0	49
0	2146	0	49
0	2162	0	49
0	2364	0	49
0	2368	0	49
0	2422	0	49
0	2566	0	49
0	2570	0	49
0	2590	0	49
0	2600	0	49
0	2606	0	49
0	2610	0	49
0	2626	0	49
0	2630	0	49
0	2724	0	49
0	2754	0	49
0	2820	0	49
0	2834	0	49
0	2838	0	49
0	2858	0	49
0	2914	0	49
1	4	0	4
1	86	0	30
1	102	0	32
1	110	0	32
1	130	0	33
1	168	0	40
1	356	0	48
1	626	0	48
1	638	0	48
1	666	0	48
1	724	0	48
1	1132	0	48
1	1506	0	49
1	1526	0	49
1	1818	0	49
1	1824	0	49
1	1828	0	49
1	1862	0	49
1	1944	0	49
1	1992	0	49
1	2024	0	49
1	2140	0	49
1	2154	0	49
1	2172	0	49
1	2412	0	49
1	2416	0	49
1	2420	0	49
1	2602	0	49
1	2608	0	49
1	2618	0	49
1	2632	0	49
1	2748	0	49
1	2806	0	49
1	2870	0	49
2	8	0	5
2	84	0	30
2	114	0	33
2	120	0	33
2	132	0	33
2	142	0	37
2	170	0	40
2	210	0	41
2	244	0	45
2	264	0	45
2	630	0	48
2	642	0	48
2	698	0	48
2	1146	0	48
2	1158	0	49
2	1354	0	49
2	1508	0	49
2	1514	0	49
2	1524	0	49
2	1820	0	49
2	1830	0	49
2	2026	0	49
2	2030	0	49
2	2116	0	49
2	2418	0	49
2	2574	0	49
2	2578	0	49
2	2596	0	49
2	2624	0	49
2	2750	0	49
2	2836	0	49
2	2860	0	49
3	10	0	6
3	16	0	9
3	38	0	21
3	112	0	33
3	134	0	33
3	150	0	40
3	154	0	40
3	208	0	41
3	218	0	44
3	262	0	45
3	350	0	48
3	360	0	48
3	632	0	48
3	644	0	48
3	696	0	48
3	722	0	48
3	780	0	48
3	818	0	48
3	1002	0	48
3	1138	0	48
3	1176	0	49
3	1184	0	49
3	1246	0	49
3	1346	0	49
3	1448	0	49
3	1496	0	49
3	1698	0	49
3	1816	0	49
3	1826	0	49
3	1834	0	49
3	1906	0	49
3	1946	0	49
3	1962	0	49
3	2028	0	49
3	2034	0	49
3	2114	0	49
3	2134	0	49
3	2144	0	49
3	2148	0	49
3	2152	0	49
3	2160	0	49
3	2166	0	49
3	2410	0	49
3	2580	0	49
3	2598	0	49
3	2804	0	49
3	2808	0	49
3	2812	0	49
3	2822	0	49
3	2862	0	49
3	2866	0	49
4	12	0	7
4	62	0	27
4	74	0	29
4	136	0	34
4	148	0	39
4	158	0	40
4	258	0	45
4	466	0	48
4	658	0	48
4	712	0	48
4	792	0	48
4	862	0	48
4	876	0	48
4	1198	0	49
4	1210	0	49
4	1216	0	49
4	1228	0	49
4	1358	0	49
4	1376	0	49
4	1446	0	49
4	1454	0	49
4	1598	0	49
4	1688	0	49
4	1692	0	49
4	1880	0	49
4	1884	0	49
4	1922	0	49
4	2132	0	49
4	2246	0	49
4	2286	0	49
4	2312	0	49
4	2316	0	49
4	2352	0	49
4	2612	0	49
4	2648	0	49
4	2726	0	49
4	2760	0	49
4	2824	0	49
4	2916	0	49
5	14	0	9
5	28	0	15
5	52	0	23
5	60	0	26
5	90	0	30
5	174	0	41
5	204	0	41
5	220	0	44
5	236	0	45
5	346	0	48
5	460	0	48
5	590	0	48
5	594	0	48
5	660	0	48
5	672	0	48
5	702	0	48
5	708	0	48
5	720	0	48
5	732	0	48
5	794	0	48
5	804	0	48
5	822	0	48
5	844	0	48
5	852	0	48
5	860	0	48
5	1016	0	48
5	1126	0	48
5	1218	0	49
5	1300	0	49
5	1312	0	49
5	1342	0	49
5	1348	0	49
5	1366	0	49
5	1396	0	49
5	1400	0	49
5	1462	0	49
5	1494	0	49
5	1502	0	49
5	1602	0	49
5	1866	0	49
5	1872	0	49
5	1886	0	49
5	1966	0	49
5	1972	0	49
5	1976	0	49
5	2086	0	49
5	2090	0	49
5	2120	0	49
5	2124	0	49
5	2130	0	49
5	2178	0	49
5	2282	0	49
5	2310	0	49
5	2350	0	49
5	2370	0	49
5	2424	0	49
5	2582	0	49
5	2640	0	49
5	2722	0	49
5	2742	0	49
5	2766	0	49
5	2840	0	49
6	18	0	10
6	26	0	14
6	76	0	29
6	80	0	30
6	358	0	48
6	664	0	48
6	670	0	48
6	694	0	48
6	778	0	48
6	796	0	48
6	802	0	48
6	846	0	48
6	878	0	48
6	1010	0	48
6	1014	0	48
6	1130	0	48
6	1140	0	48
6	1162	0	49
6	1368	0	49
6	1500	0	49
6	1504	0	49
6	1530	0	49
6	1596	0	49
6	1604	0	49
6	1908	0	49
6	1988	0	49
6	1994	0	49
6	2022	0	49
6	2138	0	49
6	2158	0	49
6	2176	0	49
6	2180	0	49
6	2354	0	49
6	2568	0	49
6	2634	0	49
6	2826	0	49
6	2832	0	49
7	20	0	11
7	72	0	29
7	88	0	30
7	104	0	32
7	108	0	32
7	138	0	35
7	166	0	40
7	274	0	45
7	340	0	48
7	364	0	48
7	368	0	48
7	470	0	48
7	624	0	48
7	646	0	48
7	676	0	48
7	704	0	48
7	734	0	48
7	774	0	48
7	798	0	48
7	816	0	48
7	882	0	48
7	1004	0	48
7	1008	0	48
7	1142	0	48
7	1174	0	49
7	1214	0	49
7	1226	0	49
7	1252	0	49
7	1328	0	49
7	1464	0	49
7	1474	0	49
7	1498	0	49
7	1534	0	49
7	1544	0	49
7	1700	0	49
7	1722	0	49
7	1858	0	49
7	1936	0	49
7	1940	0	49
7	1948	0	49
7	1956	0	49
7	2142	0	49
7	2150	0	49
7	2156	0	49
7	2186	0	49
7	2314	0	49
7	2358	0	49
7	2426	0	49
7	2436	0	49
7	2638	0	49
7	2744	0	49
7	2850	0	49
7	2872	0	49
7	2882	0	49
7	2910	0	49
8	22	0	12
8	94	0	31
8	254	0	45
8	272	0	45
8	352	0	48
8	634	0	48
8	668	0	48
8	728	0	48
8	776	0	48
8	782	0	48
8	786	0	48
8	800	0	48
8	1006	0	48
8	1186	0	49
8	1190	0	49
8	1238	0	49
8	1242	0	49
8	1250	0	49
8	1370	0	49
8	1532	0	49
8	1958	0	49
8	2164	0	49
8	2168	0	49
8	2174	0	49
8	2356	0	49
8	2360	0	49
8	2414	0	49
8	2604	0	49
8	2616	0	49
8	2756	0	49
8	2814	0	49
8	2818	0	49
8	2868	0	49
8	2912	0	49
9	24	0	13
9	98	0	32
9	140	0	36
9	146	0	38
9	172	0	40
9	206	0	41
9	238	0	45
9	256	0	45
9	362	0	48
9	468	0	48
9	628	0	48
9	662	0	48
9	788	0	48
9	820	0	48
9	826	0	48
9	880	0	48
9	1144	0	48
9	1178	0	49
9	1194	0	49
9	1694	0	49
9	1832	0	49
9	1860	0	49
9	1864	0	49
9	1942	0	49
9	1960	0	49
9	1990	0	49
9	2118	0	49
9	2366	0	49
9	2572	0	49
9	2614	0	49
9	2628	0	49
9	2746	0	49
9	2758	0	49
9	2816	0	49
10	30	0	17
10	34	0	18
10	42	0	22
10	46	0	23
10	54	0	23
10	64	0	27
10	182	0	41
10	282	0	45
10	320	0	46
10	342	0	48
10	452	0	48
10	456	0	48
10	464	0	48
10	472	0	48
10	584	0	48
10	588	0	48
10	592	0	48
10	650	0	48
10	678	0	48
10	710	0	48
10	812	0	48
10	834	0	48
10	888	0	48
10	1024	0	48
10	1170	0	49
10	1204	0	49
10	1254	0	49
10	1260	0	49
10	1362	0	49
10	1378	0	49
10	1388	0	49
10	1470	0	49
10	1536	0	49
10	1546	0	49
10	1686	0	49
10	1702	0	49
10	1868	0	49
10	1894	0	49
10	1902	0	49
10	1920	0	49
10	1978	0	49
10	1984	0	49
10	2106	0	49
10	2128	0	49
10	2214	0	49
10	2400	0	49
10	2446	0	49
10	2764	0	49
10	2794	0	49
10	2848	0	49
10	2906	0	49
11	32	0	17
11	66	0	27
11	188	0	41
11	198	0	41
11	374	0	48
11	382	0	48
11	416	0	48
11	762	0	48
11	766	0	48
11	806	0	48
11	866	0	48
11	872	0	48
11	896	0	48
11	1118	0	48
11	1200	0	49
11	1206	0	49
11	1336	0	49
11	1340	0	49
11	1386	0	49
11	1392	0	49
11	1402	0	49
11	1442	0	49
11	1492	0	49
11	1548	0	49
11	1588	0	49
11	1610	0	49
11	1874	0	49
11	1888	0	49
11	1896	0	49
11	2044	0	49
11	2202	0	49
11	2308	0	49
11	2406	0	49
11	2462	0	49
11	2558	0	49
11	2584	0	49
11	2728	0	49
11	2762	0	49
11	2918	0	49
11	2922	0	50
12	36	0	20
12	40	0	22
12	44	0	23
12	234	0	45
12	260	0	45
12	348	0	48
12	376	0	48
12	568	0	48
12	582	0	48
12	652	0	48
12	768	0	48
12	854	0	48
12	858	0	48
12	1000	0	48
12	1262	0	49
12	1338	0	49
12	1344	0	49
12	1394	0	49
12	1540	0	49
12	1600	0	49
12	1836	0	49
12	1878	0	49
12	1904	0	49
12	2078	0	49
12	2108	0	49
12	2260	0	49
12	2284	0	49
12	2290	0	49
12	2408	0	49
12	2440	0	49
12	2652	0	49
12	2796	0	49
12	2842	0	49
12	2864	0	49
12	2920	0	49
13	48	0	23
13	56	0	24
13	462	0	48
13	648	0	48
13	656	0	48
13	714	0	48
13	790	0	48
13	824	0	48
13	828	0	48
13	864	0	48
13	884	0	48
13	1120	0	48
13	1136	0	48
13	1180	0	49
13	1196	0	49
13	1208	0	49
13	1212	0	49
13	1222	0	49
13	1230	0	49
13	1302	0	49
13	1360	0	49
13	1374	0	49
13	1384	0	49
13	1444	0	49
13	1450	0	49
13	1456	0	49
13	1592	0	49
13	1814	0	49
13	1968	0	49
13	2038	0	49
13	2082	0	49
13	2092	0	49
13	2110	0	49
13	2398	0	49
13	2448	0	49
13	2564	0	49
13	2588	0	49
13	2802	0	49
13	2856	0	49
13	2900	0	49
14	58	0	25
14	70	0	29
14	160	0	40
14	192	0	41
14	222	0	44
14	226	0	45
14	278	0	45
14	286	0	45
14	370	0	48
14	378	0	48
14	414	0	48
14	580	0	48
14	654	0	48
14	706	0	48
14	718	0	48
14	772	0	48
14	830	0	48
14	842	0	48
14	874	0	48
14	1022	0	48
14	1202	0	49
14	1314	0	49
14	1330	0	49
14	1334	0	49
14	1452	0	49
14	1482	0	49
14	1542	0	49
14	1608	0	49
14	1882	0	49
14	1890	0	49
14	1998	0	49
14	2104	0	49
14	2196	0	49
14	2206	0	49
14	2210	0	49
14	2248	0	49
14	2264	0	49
14	2270	0	49
14	2280	0	49
14	2288	0	49
14	2302	0	49
14	2318	0	49
14	2380	0	49
14	2396	0	49
14	2438	0	49
14	2452	0	49
14	2460	0	49
14	2562	0	49
14	2646	0	49
14	2714	0	49
14	2844	0	49
14	2874	0	49
14	2878	0	49
14	2902	0	49
15	68	0	28
15	180	0	41
15	184	0	41
15	230	0	45
15	322	0	46
15	480	0	48
15	604	0	48
15	764	0	48
15	838	0	48
15	892	0	48
15	1380	0	49
15	1440	0	49
15	1580	0	49
15	1680	0	49
15	1728	0	49
15	1932	0	49
15	1982	0	49
15	2000	0	49
15	2198	0	49
15	2252	0	49
15	2296	0	49
15	2320	0	49
15	2374	0	49
15	2402	0	49
15	2454	0	49
15	2464	0	49
15	2560	0	49
16	78	0	30
16	336	0	48
16	426	0	48
16	692	0	48
16	848	0	48
16	1164	0	49
16	1324	0	49
16	1418	0	49
16	1422	0	49
16	1910	0	49
16	1914	0	49
16	2020	0	49
16	2182	0	49
16	2188	0	49
16	2334	0	49
16	2428	0	49
16	2432	0	49
16	2830	0	49
17	96	0	31
17	100	0	32
17	122	0	33
17	126	0	33
17	216	0	44
17	240	0	45
17	250	0	45
17	266	0	45
17	354	0	48
17	636	0	48
17	726	0	48
17	784	0	48
17	1188	0	49
17	1240	0	49
17	1244	0	49
17	1248	0	49
17	1822	0	49
17	2032	0	49
17	2170	0	49
17	2362	0	49
17	2592	0	49
17	2620	0	49
17	2810	0	49
18	106	0	32
18	290	0	45
18	306	0	46
18	328	0	48
18	332	0	48
18	404	0	48
18	410	0	48
18	424	0	48
18	428	0	48
18	438	0	48
18	610	0	48
18	618	0	48
18	622	0	48
18	682	0	48
18	686	0	48
18	690	0	48
18	736	0	48
18	758	0	48
18	1166	0	49
18	1318	0	49
18	1424	0	49
18	1432	0	49
18	1476	0	49
18	1706	0	49
18	1710	0	49
18	1716	0	49
18	1724	0	49
18	1856	0	49
18	1912	0	49
18	1916	0	49
18	1938	0	49
18	1950	0	49
18	1954	0	49
18	2018	0	49
18	2190	0	49
18	2324	0	49
18	2332	0	49
18	2342	0	49
18	2770	0	49
18	2852	0	49
18	2886	0	49
19	116	0	33
19	124	0	33
19	214	0	43
19	242	0	45
19	246	0	45
19	268	0	45
19	1150	0	48
19	1234	0	49
19	1352	0	49
19	1510	0	49
19	1516	0	49
19	2594	0	49
19	2622	0	49
19	2752	0	49
20	118	0	33
20	1148	0	48
20	1152	0	48
20	1156	0	49
20	1512	0	49
20	1518	0	49
20	1522	0	49
20	2576	0	49
21	162	0	40
21	194	0	41
21	276	0	45
21	330	0	48
21	334	0	48
21	338	0	48
21	412	0	48
21	458	0	48
21	680	0	48
21	684	0	48
21	814	0	48
21	850	0	48
21	1128	0	48
21	1168	0	49
21	1172	0	49
21	1310	0	49
21	1316	0	49
21	1326	0	49
21	1332	0	49
21	1472	0	49
21	1488	0	49
21	1606	0	49
21	1704	0	49
21	1718	0	49
21	1870	0	49
21	1986	0	49
21	1996	0	49
21	2184	0	49
21	2192	0	49
21	2208	0	49
21	2268	0	49
21	2430	0	49
21	2434	0	49
21	2636	0	49
21	2644	0	49
21	2716	0	49
21	2772	0	49
21	2828	0	49
21	2880	0	49
21	2904	0	49
22	164	0	40
22	178	0	41
22	200	0	41
22	288	0	45
22	366	0	48
22	602	0	48
22	608	0	48
22	716	0	48
22	760	0	48
22	836	0	48
22	870	0	48
22	1124	0	48
22	1224	0	49
22	1304	0	49
22	1434	0	49
22	1458	0	49
22	1466	0	49
22	1480	0	49
22	1486	0	49
22	1490	0	49
22	1590	0	49
22	1684	0	49
22	1854	0	49
22	1924	0	49
22	1934	0	49
22	1974	0	49
22	1980	0	49
22	2002	0	49
22	2042	0	49
22	2094	0	49
22	2098	0	49
22	2126	0	49
22	2194	0	49
22	2250	0	49
22	2266	0	49
22	2272	0	49
22	2278	0	49
22	2298	0	49
22	2322	0	49
22	2376	0	49
22	2404	0	49
22	2718	0	49
22	2768	0	49
22	2774	0	49
22	2854	0	49
22	2898	0	49
23	176	0	41
23	190	0	41
23	196	0	41
23	280	0	45
23	318	0	46
23	372	0	48
23	380	0	48
23	596	0	48
23	600	0	48
23	606	0	48
23	674	0	48
23	1018	0	48
23	1258	0	49
23	1308	0	49
23	1364	0	49
23	1398	0	49
23	1438	0	49
23	1460	0	49
23	1478	0	49
23	1484	0	49
23	1720	0	49
23	1726	0	49
23	1898	0	49
23	1918	0	49
23	1926	0	49
23	2102	0	49
23	2122	0	49
23	2200	0	49
23	2344	0	49
23	2348	0	49
23	2458	0	49
23	2642	0	49
23	2884	0	49
23	2908	0	49
24	186	0	41
24	224	0	44
24	384	0	48
24	398	0	48
24	418	0	48
24	448	0	48
24	474	0	48
24	478	0	48
24	832	0	48
24	890	0	48
24	1256	0	49
24	1390	0	49
24	1584	0	49
24	1900	0	49
24	1928	0	49
24	2004	0	49
24	2096	0	49
24	2100	0	49
24	2212	0	49
24	2274	0	49
24	2776	0	49
24	2792	0	49
24	2876	0	49
24	2892	0	49
24	2896	0	49
25	202	0	41
25	228	0	45
25	284	0	45
25	344	0	48
25	578	0	48
25	770	0	48
25	808	0	48
25	840	0	48
25	868	0	48
25	886	0	48
25	1122	0	48
25	1220	0	49
25	1298	0	49
25	1382	0	49
25	1538	0	49
25	1682	0	49
25	1690	0	49
25	1812	0	49
25	1852	0	49
25	1892	0	49
25	1970	0	49
25	2040	0	49
25	2080	0	49
25	2088	0	49
25	2216	0	49
25	2244	0	49
25	2262	0	49
25	2292	0	49
25	2304	0	49
25	2372	0	49
25	2394	0	49
25	2450	0	49
25	2526	0	49
25	2556	0	49
25	2586	0	49
25	2650	0	49
25	2712	0	49
25	2720	0	49
25	2740	0	49
25	2800	0	49
25	2846	0	49
26	232	0	45
26	482	0	48
26	500	0	48
26	514	0	48
26	574	0	48
26	810	0	48
26	856	0	48
26	894	0	48
26	932	0	48
26	998	0	48
26	1026	0	48
26	1030	0	48
26	1068	0	48
26	1072	0	48
26	1116	0	48
26	1558	0	49
26	1562	0	49
26	1574	0	49
26	1578	0	49
26	1620	0	49
26	1638	0	49
26	1672	0	49
26	1678	0	49
26	1730	0	49
26	1762	0	49
26	1786	0	49
26	1794	0	49
26	1850	0	49
26	2062	0	49
26	2076	0	49
26	2218	0	49
26	2254	0	49
26	2258	0	49
26	2294	0	49
26	2382	0	49
26	2390	0	49
26	2444	0	49
26	2466	0	49
26	2480	0	49
26	2490	0	49
26	2494	0	49
26	2542	0	49
26	2798	0	49
27	292	0	46
27	296	0	46
27	304	0	46
27	308	0	46
27	314	0	46
27	408	0	48
27	434	0	48
27	742	0	48
27	750	0	48
27	756	0	48
27	1414	0	49
27	1708	0	49
27	1712	0	49
27	2338	0	49
27	2888	0	49
28	294	0	46
28	300	0	46
28	310	0	46
28	390	0	48
28	430	0	48
28	436	0	48
28	440	0	48
28	616	0	48
28	688	0	48
28	738	0	48
28	744	0	48
28	754	0	48
28	1320	0	49
28	1412	0	49
28	1426	0	49
28	1430	0	49
28	1714	0	49
28	1952	0	49
28	2330	0	49
28	2782	0	49
29	298	0	46
29	302	0	46
29	312	0	46
29	316	0	46
29	326	0	48
29	388	0	48
29	394	0	48
29	402	0	48
29	406	0	48
29	422	0	48
29	442	0	48
29	476	0	48
29	612	0	48
29	740	0	48
29	748	0	48
29	1406	0	49
29	1410	0	49
29	2006	0	49
29	2014	0	49
29	2328	0	49
29	2778	0	49
29	2784	0	49
29	2890	0	49
30	324	0	47
30	420	0	48
30	450	0	48
30	454	0	48
30	586	0	48
30	598	0	48
30	1020	0	48
30	1306	0	49
30	1404	0	49
30	1436	0	49
30	1468	0	49
30	1582	0	49
30	1586	0	49
30	1930	0	49
30	2204	0	49
30	2276	0	49
30	2300	0	49
30	2346	0	49
30	2378	0	49
30	2456	0	49
30	2894	0	49
31	386	0	48
31	396	0	48
31	400	0	48
31	446	0	48
31	1408	0	49
31	2012	0	49
31	2790	0	49
32	392	0	48
32	432	0	48
32	614	0	48
32	620	0	48
32	746	0	48
32	752	0	48
32	1322	0	49
32	1416	0	49
32	1420	0	49
32	1428	0	49
32	2016	0	49
32	2326	0	49
32	2336	0	49
32	2340	0	49
32	2780	0	49
33	444	0	48
33	2010	0	49
33	2788	0	49
34	484	0	48
34	512	0	48
34	950	0	48
34	954	0	48
34	960	0	48
34	964	0	48
34	968	0	48
34	972	0	48
34	976	0	48
34	1038	0	48
34	1064	0	48
34	1094	0	48
34	1100	0	48
34	1268	0	49
34	1280	0	49
34	1642	0	49
34	1740	0	49
34	1796	0	49
34	2054	0	49
34	2388	0	49
34	2498	0	49
34	2532	0	49
34	2734	0	49
35	486	0	48
35	490	0	48
35	510	0	48
35	516	0	48
35	536	0	48
35	904	0	48
35	922	0	48
35	940	0	48
35	948	0	48
35	1080	0	48
35	1090	0	48
35	1114	0	48
35	1272	0	49
35	1276	0	49
35	1288	0	49
35	1556	0	49
35	1568	0	49
35	1622	0	49
35	1636	0	49
35	1732	0	49
35	1742	0	49
35	1754	0	49
35	1780	0	49
35	1792	0	49
35	1808	0	49
35	1846	0	49
35	2052	0	49
35	2060	0	49
35	2072	0	49
35	2236	0	49
35	2478	0	49
35	2500	0	49
35	2530	0	49
35	2672	0	49
35	2690	0	49
35	2696	0	49
35	2702	0	49
35	2706	0	49
35	2736	0	49
36	488	0	48
36	502	0	48
36	520	0	48
36	564	0	48
36	572	0	48
36	914	0	48
36	930	0	48
36	946	0	48
36	1048	0	48
36	1054	0	48
36	1074	0	48
36	1084	0	48
36	1104	0	48
36	1108	0	48
36	1616	0	49
36	1626	0	49
36	1630	0	49
36	1670	0	49
36	1766	0	49
36	1784	0	49
36	1800	0	49
36	1804	0	49
36	1848	0	49
36	2540	0	49
36	2552	0	49
36	2664	0	49
36	2684	0	49
36	2694	0	49
37	492	0	48
37	508	0	48
37	532	0	48
37	540	0	48
37	544	0	48
37	550	0	48
37	560	0	48
37	928	0	48
37	992	0	48
37	1044	0	48
37	1552	0	49
37	1628	0	49
37	1632	0	49
37	1646	0	49
37	1662	0	49
37	1666	0	49
37	1774	0	49
37	1806	0	49
37	1840	0	49
37	2058	0	49
37	2234	0	49
37	2502	0	49
37	2512	0	49
37	2536	0	49
37	2680	0	49
37	2692	0	49
38	494	0	48
38	498	0	48
38	524	0	48
38	528	0	48
38	926	0	48
38	1032	0	48
38	1036	0	48
38	1040	0	48
38	1058	0	48
38	1062	0	48
38	1066	0	48
38	1078	0	48
38	1098	0	48
38	1102	0	48
38	1266	0	49
38	1274	0	49
38	1292	0	49
38	1564	0	49
38	1570	0	49
38	1576	0	49
38	1614	0	49
38	1624	0	49
38	1640	0	49
38	1644	0	49
38	1656	0	49
38	1660	0	49
38	1770	0	49
38	1788	0	49
38	1802	0	49
38	2048	0	49
38	2056	0	49
38	2222	0	49
38	2256	0	49
38	2384	0	49
38	2468	0	49
38	2488	0	49
38	2504	0	49
38	2508	0	49
38	2534	0	49
38	2546	0	49
38	2668	0	49
38	2676	0	49
38	2698	0	49
38	2708	0	49
38	2732	0	49
39	496	0	48
39	530	0	48
39	534	0	48
39	562	0	48
39	906	0	48
39	938	0	48
39	1042	0	48
39	1076	0	48
39	1748	0	49
39	1768	0	49
39	1776	0	49
39	1782	0	49
39	2070	0	49
39	2232	0	49
39	2238	0	49
39	2476	0	49
39	2548	0	49
39	2678	0	49
40	504	0	48
40	538	0	48
40	556	0	48
40	900	0	48
40	910	0	48
40	944	0	48
40	988	0	48
40	994	0	48
40	1050	0	48
40	1060	0	48
40	1088	0	48
40	1110	0	48
40	1554	0	49
40	1650	0	49
40	1654	0	49
40	1750	0	49
40	1756	0	49
40	2050	0	49
40	2068	0	49
40	2484	0	49
40	2514	0	49
40	2520	0	49
40	2658	0	49
40	2688	0	49
41	506	0	48
41	546	0	48
41	554	0	48
41	908	0	48
41	990	0	48
41	1086	0	48
41	1648	0	49
41	1664	0	49
41	1744	0	49
41	1772	0	49
41	1778	0	49
41	1844	0	49
41	2516	0	49
41	2522	0	49
41	2550	0	49
41	2686	0	49
41	2704	0	49
42	518	0	48
42	552	0	48
42	920	0	48
42	924	0	48
42	986	0	48
42	1052	0	48
42	1056	0	48
42	1112	0	48
42	1634	0	49
42	1746	0	49
42	1752	0	49
42	2228	0	49
42	2240	0	49
42	2474	0	49
42	2506	0	49
42	2538	0	49
42	2660	0	49
42	2666	0	49
42	2682	0	49
43	522	0	48
43	526	0	48
43	934	0	48
43	956	0	48
43	978	0	48
43	982	0	48
43	1034	0	48
43	1070	0	48
43	1092	0	48
43	1096	0	48
43	1270	0	49
43	1278	0	49
43	1282	0	49
43	1286	0	49
43	1290	0	49
43	1294	0	49
43	1560	0	49
43	1566	0	49
43	1572	0	49
43	1618	0	49
43	1734	0	49
43	1738	0	49
43	1764	0	49
43	1790	0	49
43	1798	0	49
43	2064	0	49
43	2074	0	49
43	2386	0	49
43	2470	0	49
43	2496	0	49
43	2544	0	49
43	2674	0	49
44	542	0	48
44	548	0	48
44	558	0	48
44	566	0	48
44	570	0	48
44	898	0	48
44	912	0	48
44	916	0	48
44	1028	0	48
44	1082	0	48
44	1264	0	49
44	1550	0	49
44	1612	0	49
44	1652	0	49
44	1674	0	49
44	1760	0	49
44	1810	0	49
44	1838	0	49
44	1842	0	49
44	1876	0	49
44	2046	0	49
44	2220	0	49
44	2224	0	49
44	2306	0	49
44	2442	0	49
44	2482	0	49
44	2492	0	49
44	2524	0	49
44	2654	0	49
44	2710	0	49
44	2730	0	49
44	2738	0	49
45	576	0	48
45	902	0	48
45	918	0	48
45	936	0	48
45	942	0	48
45	984	0	48
45	996	0	48
45	1046	0	48
45	1106	0	48
45	1296	0	49
45	1658	0	49
45	1668	0	49
45	1676	0	49
45	1758	0	49
45	2066	0	49
45	2226	0	49
45	2230	0	49
45	2242	0	49
45	2392	0	49
45	2472	0	49
45	2486	0	49
45	2510	0	49
45	2518	0	49
45	2528	0	49
45	2554	0	49
45	2656	0	49
45	2662	0	49
45	2670	0	49
45	2700	0	49
46	952	0	48
46	958	0	48
46	962	0	48
46	966	0	48
46	970	0	48
46	974	0	48
46	980	0	48
46	1284	0	49
46	1736	0	49
47	1154	0	49
47	1520	0	49
48	2008	0	49
48	2786	0	49

